,Unnamed: 0,formula,defectid,site,valence_ratio_Crsyal,Eb_sum,Eb_sum_bva,Eb_sum_bva_nn,Vr_max,Eg,Ev,Ehull
512,512,Mg1O5Ti2,0290080,1,0.9359767946342148,11.641126001954945,10.8958238012428,10.8958238012428,-1.9122077365342869,2.8751,5.5099,0.0
513,513,Mg1O5Ti2,0290080,1,0.9359767946342148,10.059671684891402,9.415619258697228,9.415619258697228,-1.9122077365342869,2.8751,6.2716,0.0
514,514,Nb2O5,0290102,1,0.9068540347400528,9.565386011432926,8.674408898314008,8.674408898314008,-1.6041816447738562,2.6936,5.3318,0.0035000000000002
515,515,Nb2O5,0290102,1,0.9068540347400528,9.565386011432926,8.674408898314008,8.674408898314008,-1.6041816447738562,2.6936,4.7876,0.0035000000000002
516,516,Nb2O5,0290102,1,0.9068540347400528,14.348079017149388,13.011613347471013,13.011613347471013,-1.6041816447738562,2.6936,5.8008,0.0035000000000002
517,517,Nb2O5,0290125,1,0.9400559385445392,9.565386011432926,8.991997924518385,8.991997924518385,-1.6041816447738562,2.0917,5.8598,0.0
518,518,Nb2O5,0290125,1,0.9400559385445392,14.348079017149388,13.487996886777577,13.487996886777577,-1.6041816447738562,2.0917,5.3219,0.0
519,519,Nb2O5,0290125,1,0.9400559385445392,9.565386011432926,8.991997924518385,8.991997924518385,-1.6041816447738562,2.0917,4.3313,0.0
520,520,Ce1O3Sr1,0290130,1,0.8751052494470799,8.690515748809458,7.605115952185677,7.605115952185679,-1.974911567461291,2.512,5.1286,0.0
521,521,Ce1O3Sr1,0290130,1,0.8751052494470799,10.433123680181,9.13008130065703,9.130081300657032,-1.974911567461291,2.512,5.1089,0.0
522,522,O4Sr2Ti1,0290206,1,0.9100595605961226,13.58172188499541,12.360175850797663,12.360175850797663,-1.9122077365342869,2.0899,5.5107,0.0
523,523,O4Sr2Ti1,0290206,1,0.9100595605961226,12.01868473661233,10.937718950344744,10.937718950344742,-1.9122077365342869,2.0899,5.3384,0.0
524,524,Nb2O7Sr2,0290243,1,0.5347739306677435,9.565386011432926,5.115319075688235,6.82937273037379,-1.6041816447738562,2.6865,5.731,0.0
525,525,Nb2O7Sr2,0290243,1,0.5347739306677435,9.565386011432926,5.115319075688235,6.82937273037379,-1.6041816447738562,2.6865,5.4724,0.0
526,526,Nb2O7Sr2,0290243,1,0.5347739306677435,10.010516799831088,5.353363417061152,7.147181553154461,-1.6041816447738562,2.6865,5.5227,0.0
527,527,Nb2O7Sr2,0290243,1,0.5347739306677435,9.565386011432926,5.115319075688235,6.82937273037379,-1.6041816447738562,2.6865,5.8478,0.0
528,528,Nb2O7Sr2,0290243,1,0.5347739306677435,9.565386011432926,5.115319075688235,6.82937273037379,-1.6041816447738562,2.6865,5.6802,0.0
529,529,Nb2O7Sr2,0290243,1,0.5347739306677435,13.05060187417601,6.979121661832925,9.3177028556855,-1.6041816447738562,2.6865,5.6932,0.0
530,530,Nb2O7Sr2,0290243,1,0.5347739306677435,10.010516799831088,5.353363417061152,7.147181553154461,-1.6041816447738562,2.6865,5.2334,0.0
531,531,Nb2O7Sr2,0290243,1,0.5347739306677435,9.565386011432926,5.115319075688235,6.82937273037379,-1.6041816447738562,2.6865,5.7292,0.0
532,532,Nb2O7Sr2,0290243,1,0.5347739306677435,9.565386011432926,5.115319075688235,6.82937273037379,-1.6041816447738562,2.6865,5.4793,0.0
533,533,Nb2O7Sr2,0290243,1,0.5347739306677435,10.010516799831088,5.353363417061152,7.147181553154461,-1.6041816447738562,2.6865,5.5471,0.0
534,534,Nb2O7Sr2,0290243,1,0.5347739306677435,13.05060187417601,6.979121661832925,9.3177028556855,-1.6041816447738562,2.6865,5.8118,0.0
535,535,Nb2O7Sr2,0290243,1,0.5347739306677435,9.565386011432926,5.115319075688235,6.82937273037379,-1.6041816447738562,2.6865,5.5958,0.0
536,536,Nb2O7Sr2,0290243,1,0.5347739306677435,13.05060187417601,6.979121661832925,9.3177028556855,-1.6041816447738562,2.6865,5.6843,0.0
537,537,Nb2O7Sr2,0290243,1,0.5347739306677435,10.010516799831088,5.353363417061152,7.147181553154461,-1.6041816447738562,2.6865,5.7709,0.0
538,538,O3Y2,0290296,1,0.712969400314074,12.09464451327518,8.62311144564171,8.62311144564171,-3.290655589970924,3.7932,6.5735,0.0
539,539,Co1La2O4,icsd16404,1,0.8197876311831285,14.93213811251958,12.241182131761738,12.241182131761738,-1.2318970816502175,2.2134,4.9685,0.0
540,540,Co1La2O4,icsd16404,1,0.8197876311831285,13.356540299534757,10.949526532957591,10.949526532957591,-1.2318970816502175,2.2134,5.9606,0.0
541,541,Ba1La2O4,icsd427481,1,0.7072859839642507,12.229258916212254,8.64958342570677,8.64958342570677,-2.8403280769497066,3.2494,6.5252,0.0
542,542,Ba1La2O4,icsd427481,1,0.7072859839642507,12.229258916212254,8.64958342570677,8.64958342570677,-2.8403280769497066,3.2494,6.4588,0.0
543,543,Ba1La2O4,icsd427481,1,0.7072859839642507,12.229258916212254,8.64958342570677,8.64958342570677,-2.8403280769497066,3.2494,6.6203,0.0
544,544,Ba1La2O4,icsd427481,1,0.7072859839642507,12.229258916212254,8.64958342570677,8.64958342570677,-2.8403280769497066,3.2494,6.5091,0.0
545,545,Ba1Ce2O4,icsd427482,1,0.7238070561223052,12.16669603970191,8.806340443231548,8.806340443231548,-2.8403280769497066,0.71,6.8914,0.0
546,546,Ba1Ce2O4,icsd427482,1,0.7238070561223052,12.16669603970191,8.806340443231548,8.806340443231548,-2.8403280769497066,0.71,6.5518,0.0
547,547,Ba1Ce2O4,icsd427482,1,0.7238070561223052,12.16669603970191,8.806340443231548,8.806340443231548,-2.8403280769497066,0.71,6.6828,0.0
548,548,Ba1Ce2O4,icsd427482,1,0.7238070561223052,12.16669603970191,8.806340443231548,8.806340443231548,-2.8403280769497066,0.71,6.5635,0.0