,formula,full_name,band_gap,formation_energy,nn_ave_eleneg,o2p_center_from_vbm,vacancy_formation_energy,charge,vacancy_index,merge_on,valence,bv_sum_Crystal,bv_sum_nn,BVS_ratio,vr_max,Eb_sum
1665,Cs2Al2As2O7,Cs2Al2As2O7_Va_O1,3.5767,-2.50447628698939,1.9824255200641765,3.0897262460855073,1.6662474765441244,2,287,Cs2Al2As2O7_Va_O1287,-2.0,-1.8949592219615865,-1.8949592219615865,0.9474796109807933,-1.150088447140494,5.7787150905517475
1668,Cs2Al2As2O7,Cs2Al2As2O7_Va_O2,3.5767,-2.50447628698939,1.7799465903286285,2.365795355247751,6.525579730000013,0,191,Cs2Al2As2O7_Va_O2191,-2.0,-1.7871350697105712,-1.7871350697105712,0.8935675348552856,-1.150088447140494,4.7578608824608395
1671,Cs2Al2As2O7,Cs2Al2As2O7_Va_O2,3.5767,-2.50447628698939,1.7799465903286285,2.365795355247751,5.193646956544876,1,191,Cs2Al2As2O7_Va_O2191,-2.0,-1.7871350697105712,-1.7871350697105712,0.8935675348552856,-1.150088447140494,4.7578608824608395
1674,Cs2Al2As2O7,Cs2Al2As2O7_Va_O2,3.5767,-2.50447628698939,1.7799465903286285,2.365795355247751,4.219326226813028,2,191,Cs2Al2As2O7_Va_O2191,-2.0,-1.7871350697105712,-1.7871350697105712,0.8935675348552856,-1.150088447140494,4.7578608824608395
1677,Cs2Al2As2O7,Cs2Al2As2O7_Va_O3,3.5767,-2.50447628698939,2.171134085728217,3.003992722588141,5.240528469999967,0,311,Cs2Al2As2O7_Va_O3311,-2.0,-1.9610600725716865,-1.9610600725716865,0.9805300362858432,-1.150088447140494,5.980290923156463
1680,Cs2Al2As2O7,Cs2Al2As2O7_Va_O3,3.5767,-2.50447628698939,2.171134085728217,3.003992722588141,2.98257184301643,1,311,Cs2Al2As2O7_Va_O3311,-2.0,-1.9610600725716865,-1.9610600725716865,0.9805300362858432,-1.150088447140494,5.980290923156463
1683,Cs2Al2As2O7,Cs2Al2As2O7_Va_O3,3.5767,-2.50447628698939,2.171134085728217,3.003992722588141,1.7227933517703455,2,311,Cs2Al2As2O7_Va_O3311,-2.0,-1.9610600725716865,-1.9610600725716865,0.9805300362858432,-1.150088447140494,5.980290923156463
1686,Cs2Al2Sb2O7,Cs2Al2Sb2O7_Va_O1,3.5528999999999997,-2.515293009297082,1.9084868192717543,2.213123848134931,5.491618099999991,0,233,Cs2Al2Sb2O7_Va_O1233,-2.0,-1.8611637033292825,-1.8611637033292825,0.9305818516646412,-1.2369755737418262,5.691369851163923
1689,Cs2Al2Sb2O7,Cs2Al2Sb2O7_Va_O1,3.5528999999999997,-2.515293009297082,1.9084868192717543,2.213123848134931,3.435189869979281,1,233,Cs2Al2Sb2O7_Va_O1233,-2.0,-1.8611637033292825,-1.8611637033292825,0.9305818516646412,-1.2369755737418262,5.691369851163923
1692,Cs2Al2Sb2O7,Cs2Al2Sb2O7_Va_O1,3.5528999999999997,-2.515293009297082,1.9084868192717543,2.213123848134931,1.856914581115764,2,233,Cs2Al2Sb2O7_Va_O1233,-2.0,-1.8611637033292825,-1.8611637033292825,0.9305818516646412,-1.2369755737418262,5.691369851163923
1695,Cs2Al2Sb2O7,Cs2Al2Sb2O7_Va_O2,3.5528999999999997,-2.515293009297082,2.0471868765130923,1.6065783243480625,6.148584030000061,0,197,Cs2Al2Sb2O7_Va_O2197,-2.0,-1.886660842986708,-1.886660842986708,0.943330421493354,-1.2369755737418262,5.022826744019298
1698,Cs2Al2Sb2O7,Cs2Al2Sb2O7_Va_O2,3.5528999999999997,-2.515293009297082,2.0471868765130923,1.6065783243480625,4.8410587139702255,1,197,Cs2Al2Sb2O7_Va_O2197,-2.0,-1.886660842986708,-1.886660842986708,0.943330421493354,-1.2369755737418262,5.022826744019298
1701,Cs2Al2Sb2O7,Cs2Al2Sb2O7_Va_O2,3.5528999999999997,-2.515293009297082,2.0471868765130923,1.6065783243480625,4.000711770415121,2,197,Cs2Al2Sb2O7_Va_O2197,-2.0,-1.886660842986708,-1.886660842986708,0.943330421493354,-1.2369755737418262,5.022826744019298
1704,Cs2BeO2,Cs2BeO2_Va_O1,2.8190999999999997,-2.0228830126724127,1.184602843015307,2.0400287921043465,6.6364066600002705,0,479,Cs2BeO2_Va_O1479,-2.0,-1.005924544820912,-1.2203326140671196,0.502962272410456,-1.793018636425102,3.0771196313991007
1707,Cs2BeO2,Cs2BeO2_Va_O1,2.8190999999999997,-2.0228830126724127,1.184602843015307,2.0400287921043465,4.497850387398493,1,479,Cs2BeO2_Va_O1479,-2.0,-1.005924544820912,-1.2203326140671196,0.502962272410456,-1.793018636425102,3.0771196313991007
1710,Cs2BeO2,Cs2BeO2_Va_O1,2.8190999999999997,-2.0228830126724127,1.184602843015307,2.0400287921043465,3.0195283588234,2,479,Cs2BeO2_Va_O1479,-2.0,-1.005924544820912,-1.2203326140671196,0.502962272410456,-1.793018636425102,3.0771196313991007
1713,Cs2BeO2,Cs2BeO2_Va_O2,2.8190999999999997,-2.0228830126724127,1.0609972061391637,1.14828054545211,6.480850050000194,0,455,Cs2BeO2_Va_O2455,-2.0,-0.6833717231795271,-1.5682693702363983,0.3416858615897635,-1.793018636425102,1.0452158443519866
1716,Cs2BeO2,Cs2BeO2_Va_O2,2.8190999999999997,-2.0228830126724127,1.0609972061391637,1.14828054545211,4.873400574330091,1,455,Cs2BeO2_Va_O2455,-2.0,-0.6833717231795271,-1.5682693702363983,0.3416858615897635,-1.793018636425102,1.0452158443519866
1719,Cs2BeO2,Cs2BeO2_Va_O2,2.8190999999999997,-2.0228830126724127,1.0609972061391637,1.14828054545211,4.8084594945218,2,455,Cs2BeO2_Va_O2455,-2.0,-0.6833717231795271,-1.5682693702363983,0.3416858615897635,-1.793018636425102,1.0452158443519866
1722,Cs2CeO3,Cs2CeO3_Va_O1,2.5233,-2.6745016659770116,1.3420881524295536,1.3705822028184516,4.964501289999939,0,431,Cs2CeO3_Va_O1431,-2.0,-1.8265117835567268,-1.4478895095014028,0.9132558917783634,-1.793018636425102,9.499071096203771
1725,Cs2CeO3,Cs2CeO3_Va_O1,2.5233,-2.6745016659770116,1.3420881524295536,1.3705822028184516,3.0876665246597605,1,431,Cs2CeO3_Va_O1431,-2.0,-1.8265117835567268,-1.4478895095014028,0.9132558917783634,-1.793018636425102,9.499071096203771
1728,Cs2CeO3,Cs2CeO3_Va_O1,2.5233,-2.6745016659770116,1.3420881524295536,1.3705822028184516,1.7718195463981423,2,431,Cs2CeO3_Va_O1431,-2.0,-1.8265117835567268,-1.4478895095014028,0.9132558917783634,-1.793018636425102,9.499071096203771
1731,Cs2CeO3,Cs2CeO3_Va_O2,2.5233,-2.6745016659770116,1.2425705671637837,0.9863841571496758,2.863454320375509,1,359,Cs2CeO3_Va_O2359,-2.0,-1.9128873702433944,-1.740747159496581,0.9564436851216972,-1.793018636425102,7.458993256743579
1733,Cs2CeO3,Cs2CeO3_Va_O2,2.5233,-2.6745016659770116,1.2425705671637837,0.9863841571496758,2.018650460862878,2,359,Cs2CeO3_Va_O2359,-2.0,-1.9128873702433944,-1.740747159496581,0.9564436851216972,-1.793018636425102,7.458993256743579
1735,Cs2Li2GeO4,Cs2Li2GeO4_Va_O1,3.5806000000000004,-2.1051380158365265,1.2505026491417384,1.6281779424231504,4.825497489999984,0,215,Cs2Li2GeO4_Va_O1215,-2.0,-1.3851788381833885,-1.3851788381833885,0.6925894190916941,-1.502819088333178,4.695422629353625
1738,Cs2Li2GeO4,Cs2Li2GeO4_Va_O1,3.5806000000000004,-2.1051380158365265,1.2505026491417384,1.6281779424231504,3.461715467426343,1,215,Cs2Li2GeO4_Va_O1215,-2.0,-1.3851788381833885,-1.3851788381833885,0.6925894190916941,-1.502819088333178,4.695422629353625
1741,Cs2Li2GeO4,Cs2Li2GeO4_Va_O1,3.5806000000000004,-2.1051380158365265,1.2505026491417384,1.6281779424231504,2.60858182944674,2,215,Cs2Li2GeO4_Va_O1215,-2.0,-1.3851788381833885,-1.3851788381833885,0.6925894190916941,-1.502819088333178,4.695422629353625
1744,Cs2Li2GeO4,Cs2Li2GeO4_Va_O2,3.5806000000000004,-2.1051380158365265,1.2449797845032216,1.7700711978375825,5.20998449000002,0,251,Cs2Li2GeO4_Va_O2251,-2.0,-1.488067549182828,-1.6525986416768774,0.7440337745914141,-1.502819088333178,6.165523580115892
1747,Cs2Li2GeO4,Cs2Li2GeO4_Va_O2,3.5806000000000004,-2.1051380158365265,1.2449797845032216,1.7700711978375825,3.655964580810716,1,251,Cs2Li2GeO4_Va_O2251,-2.0,-1.488067549182828,-1.6525986416768774,0.7440337745914141,-1.502819088333178,6.165523580115892
1750,Cs2Li2GeO4,Cs2Li2GeO4_Va_O2,3.5806000000000004,-2.1051380158365265,1.2449797845032216,1.7700711978375825,2.6619395998046027,2,251,Cs2Li2GeO4_Va_O2251,-2.0,-1.488067549182828,-1.6525986416768774,0.7440337745914141,-1.502819088333178,6.165523580115892
1753,Cs2Li2GeO4,Cs2Li2GeO4_Va_O3,3.5806000000000004,-2.1051380158365265,1.3565996846224582,1.342311365713568,4.244944519999885,0,287,Cs2Li2GeO4_Va_O3287,-2.0,-1.0306981654903205,-1.4949644232374075,0.5153490827451602,-1.502819088333178,1.9404537384153462
1756,Cs2Li2GeO4,Cs2Li2GeO4_Va_O3,3.5806000000000004,-2.1051380158365265,1.3565996846224582,1.342311365713568,3.186742268476565,1,287,Cs2Li2GeO4_Va_O3287,-2.0,-1.0306981654903205,-1.4949644232374075,0.5153490827451602,-1.502819088333178,1.9404537384153462
1759,Cs2Li2GeO4,Cs2Li2GeO4_Va_O3,3.5806000000000004,-2.1051380158365265,1.3565996846224582,1.342311365713568,1.936926757164418,2,287,Cs2Li2GeO4_Va_O3287,-2.0,-1.0306981654903205,-1.4949644232374075,0.5153490827451602,-1.502819088333178,1.9404537384153462
1762,Cs2Li2GeO4,Cs2Li2GeO4_Va_O4,3.5806000000000004,-2.1051380158365265,1.2588857501474813,1.805930522346883,5.0755888,0,323,Cs2Li2GeO4_Va_O4323,-2.0,-1.4266682555101284,-1.4266682555101282,0.7133341277550642,-1.502819088333178,5.9111273377212665
1765,Cs2Li2GeO4,Cs2Li2GeO4_Va_O4,3.5806000000000004,-2.1051380158365265,1.2588857501474813,1.805930522346883,3.4122173849608144,1,323,Cs2Li2GeO4_Va_O4323,-2.0,-1.4266682555101284,-1.4266682555101282,0.7133341277550642,-1.502819088333178,5.9111273377212665
1768,Cs2Li2GeO4,Cs2Li2GeO4_Va_O4,3.5806000000000004,-2.1051380158365265,1.2588857501474813,1.805930522346883,2.370093077892412,2,323,Cs2Li2GeO4_Va_O4323,-2.0,-1.4266682555101284,-1.4266682555101282,0.7133341277550642,-1.502819088333178,5.9111273377212665
1771,Cs2Li2SiO4,Cs2Li2SiO4_Va_O1,4.0485,-2.471690085836526,1.288665516529164,2.2116258351157856,6.852228599999885,0,215,Cs2Li2SiO4_Va_O1215,-2.0,-1.6053896222203703,-1.6053896222203703,0.8026948111101851,-1.793018636425102,7.496368511302677
1774,Cs2Li2SiO4,Cs2Li2SiO4_Va_O1,4.0485,-2.471690085836526,1.288665516529164,2.2116258351157856,4.605175628989692,1,215,Cs2Li2SiO4_Va_O1215,-2.0,-1.6053896222203703,-1.6053896222203703,0.8026948111101851,-1.793018636425102,7.496368511302677
1777,Cs2Li2SiO4,Cs2Li2SiO4_Va_O1,4.0485,-2.471690085836526,1.288665516529164,2.2116258351157856,3.0790942233829206,2,215,Cs2Li2SiO4_Va_O1215,-2.0,-1.6053896222203703,-1.6053896222203703,0.8026948111101851,-1.793018636425102,7.496368511302677
1780,Cs2Li2SiO4,Cs2Li2SiO4_Va_O2,4.0485,-2.471690085836526,1.274006013143821,2.024883880365523,6.672958639999829,0,251,Cs2Li2SiO4_Va_O2251,-2.0,-1.6275040629942144,-1.6275040629942144,0.8137520314971072,-1.793018636425102,6.373226556501445
1783,Cs2Li2SiO4,Cs2Li2SiO4_Va_O2,4.0485,-2.471690085836526,1.274006013143821,2.024883880365523,4.692112044304749,1,251,Cs2Li2SiO4_Va_O2251,-2.0,-1.6275040629942144,-1.6275040629942144,0.8137520314971072,-1.793018636425102,6.373226556501445
1786,Cs2Li2SiO4,Cs2Li2SiO4_Va_O2,4.0485,-2.471690085836526,1.274006013143821,2.024883880365523,3.412618491557089,2,251,Cs2Li2SiO4_Va_O2251,-2.0,-1.6275040629942144,-1.6275040629942144,0.8137520314971072,-1.793018636425102,6.373226556501445
1789,Cs2Li2SiO4,Cs2Li2SiO4_Va_O3,4.0485,-2.471690085836526,1.2614680654511172,2.211409682046513,6.90530843,0,287,Cs2Li2SiO4_Va_O3287,-2.0,-1.7187312813740456,-1.7187312813740456,0.8593656406870228,-1.793018636425102,8.025617506648295
1792,Cs2Li2SiO4,Cs2Li2SiO4_Va_O3,4.0485,-2.471690085836526,1.2614680654511172,2.211409682046513,4.735058686766263,1,287,Cs2Li2SiO4_Va_O3287,-2.0,-1.7187312813740456,-1.7187312813740456,0.8593656406870228,-1.793018636425102,8.025617506648295
1795,Cs2Li2SiO4,Cs2Li2SiO4_Va_O3,4.0485,-2.471690085836526,1.2614680654511172,2.211409682046513,3.344503304586007,2,287,Cs2Li2SiO4_Va_O3287,-2.0,-1.7187312813740456,-1.7187312813740456,0.8593656406870228,-1.793018636425102,8.025617506648295
1798,Cs2Li2SiO4,Cs2Li2SiO4_Va_O4,4.0485,-2.471690085836526,1.3850734505746751,1.6484620709584357,6.308132009999904,0,323,Cs2Li2SiO4_Va_O4323,-2.0,-1.2459753557992634,-1.719654036067285,0.6229876778996317,-1.793018636425102,3.0013697847619727
1801,Cs2Li2SiO4,Cs2Li2SiO4_Va_O4,4.0485,-2.471690085836526,1.3850734505746751,1.6484620709584357,4.6098697679907,1,323,Cs2Li2SiO4_Va_O4323,-2.0,-1.2459753557992634,-1.719654036067285,0.6229876778996317,-1.793018636425102,3.0013697847619727
1804,Cs2Li2SiO4,Cs2Li2SiO4_Va_O4,4.0485,-2.471690085836526,1.3850734505746751,1.6484620709584357,2.7414577411025,2,323,Cs2Li2SiO4_Va_O4323,-2.0,-1.2459753557992634,-1.719654036067285,0.6229876778996317,-1.793018636425102,3.0013697847619727
1807,Cs2Li3GaO4,Cs2Li3GaO4_Va_O1,3.8867,-2.005658967336206,1.1181967269204964,1.351219035267174,5.5107512299999915,0,79,Cs2Li3GaO4_Va_O179,-2.0,-1.20578233021331,-1.20578233021331,0.602891165106655,-1.793018636425102,4.215458067671174
1810,Cs2Li3GaO4,Cs2Li3GaO4_Va_O1,3.8867,-2.005658967336206,1.1181967269204964,1.351219035267174,3.881513155426738,1,79,Cs2Li3GaO4_Va_O179,-2.0,-1.20578233021331,-1.20578233021331,0.602891165106655,-1.793018636425102,4.215458067671174
1813,Cs2Li3GaO4,Cs2Li3GaO4_Va_O1,3.8867,-2.005658967336206,1.1181967269204964,1.351219035267174,2.7561279055816628,2,79,Cs2Li3GaO4_Va_O179,-2.0,-1.20578233021331,-1.20578233021331,0.602891165106655,-1.793018636425102,4.215458067671174
1816,Cs2LiAsO4,Cs2LiAsO4_Va_O1,3.9244,-2.1015164842744247,1.5338980297458973,1.936258695615289,3.730925379999926,0,111,Cs2LiAsO4_Va_O1111,-2.0,-1.6989206922412723,-1.6989206922412723,0.8494603461206363,-0.6589084382122885,3.6974596746755894
1818,Cs2LiAsO4,Cs2LiAsO4_Va_O1,3.9244,-2.1015164842744247,1.5338980297458973,1.936258695615289,2.501282295534356,1,111,Cs2LiAsO4_Va_O1111,-2.0,-1.6989206922412723,-1.6989206922412723,0.8494603461206363,-0.6589084382122885,3.6974596746755894
1820,Cs2LiAsO4,Cs2LiAsO4_Va_O2,3.9244,-2.1015164842744247,1.432386789836049,1.822512268131817,3.7508794299999497,0,95,Cs2LiAsO4_Va_O295,-2.0,-1.550249210495636,-1.711203861944746,0.775124605247818,-0.6589084382122885,3.3738973029656023
1823,Cs2LiAsO4,Cs2LiAsO4_Va_O2,3.9244,-2.1015164842744247,1.432386789836049,1.822512268131817,2.586402754175955,1,95,Cs2LiAsO4_Va_O295,-2.0,-1.550249210495636,-1.711203861944746,0.775124605247818,-0.6589084382122885,3.3738973029656023
1826,Cs2LiAsO4,Cs2LiAsO4_Va_O2,3.9244,-2.1015164842744247,1.432386789836049,1.822512268131817,2.330724461622332,2,95,Cs2LiAsO4_Va_O295,-2.0,-1.550249210495636,-1.711203861944746,0.775124605247818,-0.6589084382122885,3.3738973029656023
1829,Cs2LiAsO4,Cs2LiAsO4_Va_O3,3.9244,-2.1015164842744247,1.381685372698733,1.8813253348679115,3.698128719999895,0,127,Cs2LiAsO4_Va_O3127,-2.0,-1.5416541526051568,-1.5416541526051568,0.7708270763025784,-0.6589084382122885,3.3551913797893866
1832,Cs2LiAsO4,Cs2LiAsO4_Va_O3,3.9244,-2.1015164842744247,1.381685372698733,1.8813253348679115,2.4929522028119537,1,127,Cs2LiAsO4_Va_O3127,-2.0,-1.5416541526051568,-1.5416541526051568,0.7708270763025784,-0.6589084382122885,3.3551913797893866
1835,Cs2LiAsO4,Cs2LiAsO4_Va_O3,3.9244,-2.1015164842744247,1.381685372698733,1.8813253348679115,2.3811622112513384,2,127,Cs2LiAsO4_Va_O3127,-2.0,-1.5416541526051568,-1.5416541526051568,0.7708270763025784,-0.6589084382122885,3.3551913797893866
1838,Cs2NaAsO4,Cs2NaAsO4_Va_O1,3.7559,-2.033367830301724,1.4926771316747098,1.8837082383600396,3.8470199199999886,0,215,Cs2NaAsO4_Va_O1215,-2.0,-1.758736895157358,-1.758736895157358,0.8793684475786789,-0.6589084382122885,4.509109904974009
1841,Cs2NaAsO4,Cs2NaAsO4_Va_O1,3.7559,-2.033367830301724,1.4926771316747098,1.8837082383600396,2.5426274832342353,1,215,Cs2NaAsO4_Va_O1215,-2.0,-1.758736895157358,-1.758736895157358,0.8793684475786789,-0.6589084382122885,4.509109904974009
1844,Cs2NaAsO4,Cs2NaAsO4_Va_O1,3.7559,-2.033367830301724,1.4926771316747098,1.8837082383600396,2.2252226078438446,2,215,Cs2NaAsO4_Va_O1215,-2.0,-1.758736895157358,-1.758736895157358,0.8793684475786789,-0.6589084382122885,4.509109904974009
1847,Cs2NaAsO4,Cs2NaAsO4_Va_O2,3.7559,-2.033367830301724,1.4844675868810149,1.8995340407659276,3.812766990000122,0,269,Cs2NaAsO4_Va_O2269,-2.0,-1.6567563692435043,-1.6567563692435043,0.8283781846217522,-0.6589084382122885,3.3024476612519904
1849,Cs2NaAsO4,Cs2NaAsO4_Va_O2,3.7559,-2.033367830301724,1.4844675868810149,1.8995340407659276,2.6142136324881298,1,269,Cs2NaAsO4_Va_O2269,-2.0,-1.6567563692435043,-1.6567563692435043,0.8283781846217522,-0.6589084382122885,3.3024476612519904
1851,Cs2NaAsO4,Cs2NaAsO4_Va_O3,3.7559,-2.033367830301724,1.4951768996696908,1.828287378554753,3.603773619999979,0,287,Cs2NaAsO4_Va_O3287,-2.0,-1.424368722143928,-1.5904228955254929,0.712184361071964,-0.6589084382122885,2.0266035287192135
1853,Cs2NaAsO4,Cs2NaAsO4_Va_O3,3.7559,-2.033367830301724,1.4951768996696908,1.828287378554753,2.5039216689602313,1,287,Cs2NaAsO4_Va_O3287,-2.0,-1.424368722143928,-1.5904228955254929,0.712184361071964,-0.6589084382122885,2.0266035287192135
1855,Cs2Pb2O3,Cs2Pb2O3_Va_O1,1.5981,-1.5268511915517244,1.7115984963858488,2.1850257895605347,4.016320110000047,0,223,Cs2Pb2O3_Va_O1223,-2.0,-1.86656355715684,-1.4644611244702843,0.93328177857842,-1.1369603723458594,8.07100702809326
1857,Cs2Pb2O3,Cs2Pb2O3_Va_O1,1.5981,-1.5268511915517244,1.7115984963858488,2.1850257895605347,2.397608510271099,1,223,Cs2Pb2O3_Va_O1223,-2.0,-1.86656355715684,-1.4644611244702843,0.93328177857842,-1.1369603723458594,8.07100702809326
1859,Cs2PbO2,Cs2PbO2_Va_O1,1.8019,-1.4864209311724128,1.5820424991693416,1.9661133941325843,4.030662020000031,0,287,Cs2PbO2_Va_O1287,-2.0,-1.746423877455599,-1.410858934062703,0.8732119387277995,-1.1369603723458594,7.551523940842504
1862,Cs2PbO2,Cs2PbO2_Va_O1,1.8019,-1.4864209311724128,1.5820424991693416,1.9661133941325843,2.4759993178272692,1,287,Cs2PbO2_Va_O1287,-2.0,-1.746423877455599,-1.410858934062703,0.8732119387277995,-1.1369603723458594,7.551523940842504
1865,Cs2PbO2,Cs2PbO2_Va_O1,1.8019,-1.4864209311724128,1.5820424991693416,1.9661133941325843,1.319489954298322,2,287,Cs2PbO2_Va_O1287,-2.0,-1.746423877455599,-1.410858934062703,0.8732119387277995,-1.1369603723458594,7.551523940842504
1868,Cs2PbO2,Cs2PbO2_Va_O2,1.8019,-1.4864209311724128,1.2496640479790222,1.2824712414129944,2.8343057201642594,1,323,Cs2PbO2_Va_O2323,-2.0,-1.6863120375371583,-1.4787276011090935,0.8431560187685792,-1.1369603723458594,6.931595113172262
1870,Cs2PbO2,Cs2PbO2_Va_O2,1.8019,-1.4864209311724128,1.2496640479790222,1.2824712414129944,2.390027700681259,2,323,Cs2PbO2_Va_O2323,-2.0,-1.6863120375371583,-1.4787276011090935,0.8431560187685792,-1.1369603723458594,6.931595113172262
1872,Cs2PbO2,Cs2PbO2_Va_O3,1.8019,-1.4864209311724128,1.2862496947130024,1.261164042280456,2.774782692782117,1,305,Cs2PbO2_Va_O3305,-2.0,-1.6788708631894844,-1.581189661879997,0.8394354315947422,-1.1369603723458594,6.901008124171147
1874,Cs2PbO2,Cs2PbO2_Va_O3,1.8019,-1.4864209311724128,1.2862496947130024,1.261164042280456,2.3275770959685738,2,305,Cs2PbO2_Va_O3305,-2.0,-1.6788708631894844,-1.581189661879997,0.8394354315947422,-1.1369603723458594,6.901008124171147
1876,Cs2PbO2,Cs2PbO2_Va_O4,1.8019,-1.4864209311724128,1.6736420949363475,1.9000637602392312,4.006446770000034,0,359,Cs2PbO2_Va_O4359,-2.0,-1.7922985442140993,-1.648923626415345,0.8961492721070496,-1.1369603723458594,6.585782189440085
1879,Cs2PbO2,Cs2PbO2_Va_O4,1.8019,-1.4864209311724128,1.6736420949363475,1.9000637602392312,2.4536079131439203,1,359,Cs2PbO2_Va_O4359,-2.0,-1.7922985442140993,-1.648923626415345,0.8961492721070496,-1.1369603723458594,6.585782189440085
1882,Cs2PbO2,Cs2PbO2_Va_O4,1.8019,-1.4864209311724128,1.6736420949363475,1.9000637602392312,1.579954318093732,2,359,Cs2PbO2_Va_O4359,-2.0,-1.7922985442140993,-1.648923626415345,0.8961492721070496,-1.1369603723458594,6.585782189440085
1885,Cs2PbO3,Cs2PbO3_Va_O1,1.4961,-1.5408556518103451,1.485559247551684,0.8198797051437268,1.9968066599998424,0,287,Cs2PbO3_Va_O1287,-2.0,-1.6604182953746776,-1.506988358076192,0.8302091476873388,-0.2712847561180753,5.70784578086268
1887,Cs2PbO3,Cs2PbO3_Va_O1,1.4961,-1.5408556518103451,1.485559247551684,0.8198797051437268,1.5944419662124112,2,287,Cs2PbO3_Va_O1287,-2.0,-1.6604182953746776,-1.506988358076192,0.8302091476873388,-0.2712847561180753,5.70784578086268
1889,Cs2PbO3,Cs2PbO3_Va_O2,1.4961,-1.5408556518103451,1.7935254477273914,1.5928734516564451,2.988609309999797,0,431,Cs2PbO3_Va_O2431,-2.0,-1.8747783012519628,-1.5843602638528766,0.9373891506259814,-0.2712847561180753,8.018760050033173