,formula,full_name,band_gap,formation_energy,nn_ave_eleneg,o2p_center_from_vbm,vacancy_formation_energy,charge,vacancy_index,merge_on,valence,bv_sum_Crystal,bv_sum_nn,BVS_ratio,vr_max,Eb_sum
702,BaBe2Si2O7,BaBe2Si2O7_Va_O1,5.653700000000001,-3.3066602608333335,2.3495194380769737,3.392404168825844,6.45633374,0,47,BaBe2Si2O7_Va_O147,-2.0,-2.210036668041208,-2.401311550320978,1.105018334020604,-2.356834901289411,10.64730092421436
704,BaBe2Si2O7,BaBe2Si2O7_Va_O1,5.653700000000001,-3.3066602608333335,2.3495194380769737,3.392404168825844,4.340714556377198,1,47,BaBe2Si2O7_Va_O147,-2.0,-2.210036668041208,-2.401311550320978,1.105018334020604,-2.356834901289411,10.64730092421436
706,BaBe2Si2O7,BaBe2Si2O7_Va_O2,5.653700000000001,-3.3066602608333335,2.1278745441649876,2.170805629393562,6.5372504700000125,0,63,BaBe2Si2O7_Va_O263,-2.0,-1.791377830648214,-1.961973169055267,0.895688915324107,-2.356834901289411,7.0550726631217024
709,BaBe2Si2O7,BaBe2Si2O7_Va_O2,5.653700000000001,-3.3066602608333335,2.1278745441649876,2.170805629393562,4.53198414235228,1,63,BaBe2Si2O7_Va_O263,-2.0,-1.791377830648214,-1.961973169055267,0.895688915324107,-2.356834901289411,7.0550726631217024
712,BaBe2Si2O7,BaBe2Si2O7_Va_O2,5.653700000000001,-3.3066602608333335,2.1278745441649876,2.170805629393562,1.6171214330426569,2,63,BaBe2Si2O7_Va_O263,-2.0,-1.791377830648214,-1.961973169055267,0.895688915324107,-2.356834901289411,7.0550726631217024
715,BaBe2Si2O7,BaBe2Si2O7_Va_O3,5.653700000000001,-3.3066602608333335,2.0713888722832077,2.3191452154611216,6.624770669999984,0,79,BaBe2Si2O7_Va_O379,-2.0,-1.7732473474254842,-2.0126281799233676,0.8866236737127421,-2.356834901289411,6.983668476709738
718,BaBe2Si2O7,BaBe2Si2O7_Va_O3,5.653700000000001,-3.3066602608333335,2.0713888722832077,2.3191452154611216,4.448802348645432,1,79,BaBe2Si2O7_Va_O379,-2.0,-1.7732473474254842,-2.0126281799233676,0.8866236737127421,-2.356834901289411,6.983668476709738
721,BaBe2Si2O7,BaBe2Si2O7_Va_O3,5.653700000000001,-3.3066602608333335,2.0713888722832077,2.3191452154611216,2.666392512483892,2,79,BaBe2Si2O7_Va_O379,-2.0,-1.7732473474254842,-2.0126281799233676,0.8866236737127421,-2.356834901289411,6.983668476709738
724,BaBe2Si2O7,BaBe2Si2O7_Va_O4,5.653700000000001,-3.3066602608333335,2.043594475797828,2.9169485351081157,7.0340059600000675,0,95,BaBe2Si2O7_Va_O495,-2.0,-1.9827670760911251,-1.9827670760911251,0.9913835380455628,-2.356834901289411,10.841469217819244
727,BaBe2Si2O7,BaBe2Si2O7_Va_O4,5.653700000000001,-3.3066602608333335,2.043594475797828,2.9169485351081157,4.241115087361609,1,95,BaBe2Si2O7_Va_O495,-2.0,-1.9827670760911251,-1.9827670760911251,0.9913835380455628,-2.356834901289411,10.841469217819244
730,BaBe2Si2O7,BaBe2Si2O7_Va_O4,5.653700000000001,-3.3066602608333335,2.043594475797828,2.9169485351081157,1.787564992318555,2,95,BaBe2Si2O7_Va_O495,-2.0,-1.9827670760911251,-1.9827670760911251,0.9913835380455628,-2.356834901289411,10.841469217819244
733,BaBeSiO4,BaBeSiO4_Va_O1,4.6335,-3.324616174999999,1.9702704193946723,2.6515454803051592,6.782003409999911,0,215,BaBeSiO4_Va_O1215,-2.0,-1.7087261822139057,-2.086194650278337,0.8543630911069527,-2.356834901289411,6.729561553486148
736,BaBeSiO4,BaBeSiO4_Va_O1,4.6335,-3.324616174999999,1.9702704193946723,2.6515454803051592,4.271042867014456,1,215,BaBeSiO4_Va_O1215,-2.0,-1.7087261822139057,-2.086194650278337,0.8543630911069527,-2.356834901289411,6.729561553486148
739,BaBeSiO4,BaBeSiO4_Va_O1,4.6335,-3.324616174999999,1.9702704193946723,2.6515454803051592,2.137953560305449,2,215,BaBeSiO4_Va_O1215,-2.0,-1.7087261822139057,-2.086194650278337,0.8543630911069527,-2.356834901289411,6.729561553486148
742,BaBeSiO4,BaBeSiO4_Va_O2,4.6335,-3.324616174999999,2.036395173076552,2.6104378530900005,6.7108645399999975,0,179,BaBeSiO4_Va_O2179,-2.0,-1.7162412141936154,-2.0404164410405836,0.8581206070968077,-2.356834901289411,6.759158378776405
745,BaBeSiO4,BaBeSiO4_Va_O2,4.6335,-3.324616174999999,2.036395173076552,2.6104378530900005,4.332355931729143,1,179,BaBeSiO4_Va_O2179,-2.0,-1.7162412141936154,-2.0404164410405836,0.8581206070968077,-2.356834901289411,6.759158378776405
748,BaBeSiO4,BaBeSiO4_Va_O2,4.6335,-3.324616174999999,2.036395173076552,2.6104378530900005,2.339333535800589,2,179,BaBeSiO4_Va_O2179,-2.0,-1.7162412141936154,-2.0404164410405836,0.8581206070968077,-2.356834901289411,6.759158378776405
751,BaBeSiO4,BaBeSiO4_Va_O3,4.6335,-3.324616174999999,2.051428678277335,2.5551493774155816,6.676986950000023,0,251,BaBeSiO4_Va_O3251,-2.0,-1.6983042991556618,-2.103910155118926,0.8491521495778309,-2.356834901289411,6.68851653160159
754,BaBeSiO4,BaBeSiO4_Va_O3,4.6335,-3.324616174999999,2.051428678277335,2.5551493774155816,4.372387208109382,1,251,BaBeSiO4_Va_O3251,-2.0,-1.6983042991556618,-2.103910155118926,0.8491521495778309,-2.356834901289411,6.68851653160159
757,BaBeSiO4,BaBeSiO4_Va_O3,4.6335,-3.324616174999999,2.051428678277335,2.5551493774155816,1.707736540373698,2,251,BaBeSiO4_Va_O3251,-2.0,-1.6983042991556618,-2.103910155118926,0.8491521495778309,-2.356834901289411,6.68851653160159
760,BaBiBO4,BaBiBO4_Va_O1,3.5113000000000003,-2.6110980834523803,2.2408053105451655,2.95382701364722,5.932970969999937,0,431,BaBiBO4_Va_O1431,-2.0,-1.0051370804287407,-1.9260166819813576,0.5025685402143704,-0.9858147743813158,2.73220526686163
763,BaBiBO4,BaBiBO4_Va_O1,3.5113000000000003,-2.6110980834523803,2.2408053105451655,2.95382701364722,3.4887387687213396,1,431,BaBiBO4_Va_O1431,-2.0,-1.0051370804287407,-1.9260166819813576,0.5025685402143704,-0.9858147743813158,2.73220526686163
766,BaBiBO4,BaBiBO4_Va_O1,3.5113000000000003,-2.6110980834523803,2.2408053105451655,2.95382701364722,-0.0753805680123356,2,431,BaBiBO4_Va_O1431,-2.0,-1.0051370804287407,-1.9260166819813576,0.5025685402143704,-0.9858147743813158,2.73220526686163
769,BaBiBO4,BaBiBO4_Va_O2,3.5113000000000003,-2.6110980834523803,2.053417543228978,2.8335319730380526,6.347942219999718,0,447,BaBiBO4_Va_O2447,-2.0,-0.9474731392307056,-1.833900509763611,0.4737365696153527,-0.9858147743813158,2.575460752190986
771,BaBiBO4,BaBiBO4_Va_O2,3.5113000000000003,-2.6110980834523803,2.053417543228978,2.8335319730380526,3.5438691124022776,1,447,BaBiBO4_Va_O2447,-2.0,-0.9474731392307056,-1.833900509763611,0.4737365696153527,-0.9858147743813158,2.575460752190986
773,BaBiBO4,BaBiBO4_Va_O3,3.5113000000000003,-2.6110980834523803,2.1205169417148215,1.1874519924429037,3.964150019999929,0,415,BaBiBO4_Va_O3415,-2.0,-2.0605742601818604,-2.06057426018186,1.0302871300909302,-0.9858147743813158,6.937438155630624
776,BaBiBO4,BaBiBO4_Va_O3,3.5113000000000003,-2.6110980834523803,2.1205169417148215,1.1874519924429037,2.3731386358602062,1,415,BaBiBO4_Va_O3415,-2.0,-2.0605742601818604,-2.06057426018186,1.0302871300909302,-0.9858147743813158,6.937438155630624
779,BaBiBO4,BaBiBO4_Va_O3,3.5113000000000003,-2.6110980834523803,2.1205169417148215,1.1874519924429037,1.0767551263462936,2,415,BaBiBO4_Va_O3415,-2.0,-2.0605742601818604,-2.06057426018186,1.0302871300909302,-0.9858147743813158,6.937438155630624
782,BaCa(GaO2)4,BaCa(GaO2)4_Va_O1,3.1133000000000006,-2.6343520764285713,2.051275958071092,2.0898892246455905,4.730692529999837,0,287,BaCa(GaO2)4_Va_O1287,-2.0,-1.7829443414105517,-1.7829443414105517,0.8914721707052757,-1.8812876656363955,7.555256674402131
785,BaCa(GaO2)4,BaCa(GaO2)4_Va_O1,3.1133000000000006,-2.6343520764285713,2.051275958071092,2.0898892246455905,3.2570535362444746,1,287,BaCa(GaO2)4_Va_O1287,-2.0,-1.7829443414105517,-1.7829443414105517,0.8914721707052757,-1.8812876656363955,7.555256674402131
788,BaCa(GaO2)4,BaCa(GaO2)4_Va_O1,3.1133000000000006,-2.6343520764285713,2.051275958071092,2.0898892246455905,1.0832481947718993,2,287,BaCa(GaO2)4_Va_O1287,-2.0,-1.7829443414105517,-1.7829443414105517,0.8914721707052757,-1.8812876656363955,7.555256674402131
791,BaCa(GaO2)4,BaCa(GaO2)4_Va_O2,3.1133000000000006,-2.6343520764285713,2.049749882923683,1.950754625902917,4.588181940000036,0,239,BaCa(GaO2)4_Va_O2239,-2.0,-1.4246571446172356,-1.6746025585481163,0.7123285723086178,-1.8812876656363955,3.5200038364338333
794,BaCa(GaO2)4,BaCa(GaO2)4_Va_O2,3.1133000000000006,-2.6343520764285713,2.049749882923683,1.950754625902917,3.198934351035861,1,239,BaCa(GaO2)4_Va_O2239,-2.0,-1.4246571446172356,-1.6746025585481163,0.7123285723086178,-1.8812876656363955,3.5200038364338333
797,BaCa(GaO2)4,BaCa(GaO2)4_Va_O2,3.1133000000000006,-2.6343520764285713,2.049749882923683,1.950754625902917,1.44466770591472,2,239,BaCa(GaO2)4_Va_O2239,-2.0,-1.4246571446172356,-1.6746025585481163,0.7123285723086178,-1.8812876656363955,3.5200038364338333
800,BaCa(GaO2)4,BaCa(GaO2)4_Va_O3,3.1133000000000006,-2.6343520764285713,2.0079246625902845,1.942056585405768,4.592584699999756,0,335,BaCa(GaO2)4_Va_O3335,-2.0,-1.6839532261990084,-1.6839532261990084,0.8419766130995042,-1.8812876656363955,5.707134425257116
803,BaCa(GaO2)4,BaCa(GaO2)4_Va_O3,3.1133000000000006,-2.6343520764285713,2.0079246625902845,1.942056585405768,3.2293854271972577,1,335,BaCa(GaO2)4_Va_O3335,-2.0,-1.6839532261990084,-1.6839532261990084,0.8419766130995042,-1.8812876656363955,5.707134425257116
806,BaCa(GaO2)4,BaCa(GaO2)4_Va_O3,3.1133000000000006,-2.6343520764285713,2.0079246625902845,1.942056585405768,0.6370192090111773,2,335,BaCa(GaO2)4_Va_O3335,-2.0,-1.6839532261990084,-1.6839532261990084,0.8419766130995042,-1.8812876656363955,5.707134425257116
809,BaCeO3,BaCeO3_Va_O1,2.8160000000000003,-3.5906097180000005,1.8350108684217412,1.4264059625723655,5.071578430000395,0,215,BaCeO3_Va_O1215,-2.0,-1.8950372988051511,-1.8950372988051511,0.9475186494025756,-1.974911567461291,8.147572574105922
812,BaCeO3,BaCeO3_Va_O1,2.8160000000000003,-3.5906097180000005,1.8350108684217412,1.4264059625723655,3.117252769801058,1,215,BaCeO3_Va_O1215,-2.0,-1.8950372988051511,-1.8950372988051511,0.9475186494025756,-1.974911567461291,8.147572574105922
815,BaCeO3,BaCeO3_Va_O1,2.8160000000000003,-3.5906097180000005,1.8350108684217412,1.4264059625723655,1.3419628257598664,2,215,BaCeO3_Va_O1215,-2.0,-1.8950372988051511,-1.8950372988051511,0.9475186494025756,-1.974911567461291,8.147572574105922
818,BaCeO3,BaCeO3_Va_O2,2.8160000000000003,-3.5906097180000005,1.810524567323138,1.4759702902994876,5.051462860000251,0,359,BaCeO3_Va_O2359,-2.0,-1.9067748420210913,-1.8498233874908303,0.9533874210105456,-1.974911567461291,9.81572219134396
821,BaCeO3,BaCeO3_Va_O2,2.8160000000000003,-3.5906097180000005,1.810524567323138,1.4759702902994876,3.1251180143363237,1,359,BaCeO3_Va_O2359,-2.0,-1.9067748420210913,-1.8498233874908303,0.9533874210105456,-1.974911567461291,9.81572219134396
824,BaCeO3,BaCeO3_Va_O2,2.8160000000000003,-3.5906097180000005,1.810524567323138,1.4759702902994876,1.307034937595119,2,359,BaCeO3_Va_O2359,-2.0,-1.9067748420210913,-1.8498233874908303,0.9533874210105456,-1.974911567461291,9.81572219134396
827,BaGa2B2O7,BaGa2B2O7_Va_O1,4.0867,-2.7636706123611106,2.0813793101847797,1.866419096298746,4.849031220000038,0,63,BaGa2B2O7_Va_O163,-2.0,-1.965536937017728,-1.965536937017728,0.982768468508864,-1.8812876656363955,8.19147075931733
830,BaGa2B2O7,BaGa2B2O7_Va_O1,4.0867,-2.7636706123611106,2.0813793101847797,1.866419096298746,3.621720748461952,1,63,BaGa2B2O7_Va_O163,-2.0,-1.965536937017728,-1.965536937017728,0.982768468508864,-1.8812876656363955,8.19147075931733
833,BaGa2B2O7,BaGa2B2O7_Va_O1,4.0867,-2.7636706123611106,2.0813793101847797,1.866419096298746,0.5244875016673147,2,63,BaGa2B2O7_Va_O163,-2.0,-1.965536937017728,-1.965536937017728,0.982768468508864,-1.8812876656363955,8.19147075931733
836,BaGa2B2O7,BaGa2B2O7_Va_O2,4.0867,-2.7636706123611106,2.183171644268999,4.10971585937684,5.953403190000026,0,67,BaGa2B2O7_Va_O267,-2.0,-1.829600780618492,-1.829600780618492,0.914800390309246,-1.8812876656363955,9.946593328201043
839,BaGa2B2O7,BaGa2B2O7_Va_O2,4.0867,-2.7636706123611106,2.183171644268999,4.10971585937684,3.3634981886891593,1,67,BaGa2B2O7_Va_O267,-2.0,-1.829600780618492,-1.829600780618492,0.914800390309246,-1.8812876656363955,9.946593328201043
842,BaGa2B2O7,BaGa2B2O7_Va_O2,4.0867,-2.7636706123611106,2.183171644268999,4.10971585937684,-0.1714939903054362,2,67,BaGa2B2O7_Va_O267,-2.0,-1.829600780618492,-1.829600780618492,0.914800390309246,-1.8812876656363955,9.946593328201043
845,BaGa2B2O7,BaGa2B2O7_Va_O3,4.0867,-2.7636706123611106,2.177652698351102,3.0107618446602507,6.125625130000012,0,91,BaGa2B2O7_Va_O391,-2.0,-1.9183426579137963,-1.9308273459825291,0.9591713289568982,-1.8812876656363955,9.21191166576521
848,BaGa2B2O7,BaGa2B2O7_Va_O3,4.0867,-2.7636706123611106,2.177652698351102,3.0107618446602507,4.306586375097774,1,91,BaGa2B2O7_Va_O391,-2.0,-1.9183426579137963,-1.9308273459825291,0.9591713289568982,-1.8812876656363955,9.21191166576521
851,BaGa2B2O7,BaGa2B2O7_Va_O3,4.0867,-2.7636706123611106,2.177652698351102,3.0107618446602507,2.038229010513046,2,91,BaGa2B2O7_Va_O391,-2.0,-1.9183426579137963,-1.9308273459825291,0.9591713289568982,-1.8812876656363955,9.21191166576521
854,BaGa2B2O7,BaGa2B2O7_Va_O4,4.0867,-2.7636706123611106,2.413505392208307,2.8267349497719536,5.83172821000006,0,95,BaGa2B2O7_Va_O495,-2.0,-1.7671040718287112,-1.8076911774534876,0.8835520359143556,-1.8812876656363955,6.986471680747911
857,BaGa2B2O7,BaGa2B2O7_Va_O4,4.0867,-2.7636706123611106,2.413505392208307,2.8267349497719536,4.297949204699917,1,95,BaGa2B2O7_Va_O495,-2.0,-1.7671040718287112,-1.8076911774534876,0.8835520359143556,-1.8812876656363955,6.986471680747911
860,BaGa2B2O7,BaGa2B2O7_Va_O4,4.0867,-2.7636706123611106,2.413505392208307,2.8267349497719536,1.7084293994668385,2,95,BaGa2B2O7_Va_O495,-2.0,-1.7671040718287112,-1.8076911774534876,0.8835520359143556,-1.8812876656363955,6.986471680747911
863,BaGa4O7,BaGa4O7_Va_O1,2.4256,-2.486273411249999,2.184562762634154,3.418343293318623,5.196709840000162,0,287,BaGa4O7_Va_O1287,-2.0,-1.8460413474757704,-1.8460413474757704,0.9230206737378852,-1.8812876656363955,6.841722568003588
866,BaGa4O7,BaGa4O7_Va_O1,2.4256,-2.486273411249999,2.184562762634154,3.418343293318623,2.8898694193552057,1,287,BaGa4O7_Va_O1287,-2.0,-1.8460413474757704,-1.8460413474757704,0.9230206737378852,-1.8812876656363955,6.841722568003588
869,BaGa4O7,BaGa4O7_Va_O1,2.4256,-2.486273411249999,2.184562762634154,3.418343293318623,-0.0165159549024598,2,287,BaGa4O7_Va_O1287,-2.0,-1.8460413474757704,-1.8460413474757704,0.9230206737378852,-1.8812876656363955,6.841722568003588
872,BaGa4O7,BaGa4O7_Va_O2,2.4256,-2.486273411249999,2.031120713759927,2.3815695472863627,4.816019559999981,0,263,BaGa4O7_Va_O2263,-2.0,-1.8422344243964544,-1.8422344243964544,0.9211172121982272,-1.8812876656363955,7.677601542379582
875,BaGa4O7,BaGa4O7_Va_O2,2.4256,-2.486273411249999,2.031120713759927,2.3815695472863627,3.5725117855337647,1,263,BaGa4O7_Va_O2263,-2.0,-1.8422344243964544,-1.8422344243964544,0.9211172121982272,-1.8812876656363955,7.677601542379582
878,BaGa4O7,BaGa4O7_Va_O2,2.4256,-2.486273411249999,2.031120713759927,2.3815695472863627,1.6168960199234532,2,263,BaGa4O7_Va_O2263,-2.0,-1.8422344243964544,-1.8422344243964544,0.9211172121982272,-1.8812876656363955,7.677601542379582
881,BaGa4O7,BaGa4O7_Va_O3,2.4256,-2.486273411249999,2.2079276758982274,2.430248638420524,4.4242031200000245,0,251,BaGa4O7_Va_O3251,-2.0,-1.9033208365608856,-1.9033208365608856,0.9516604182804428,-1.8812876656363955,6.317427553105366
884,BaGa4O7,BaGa4O7_Va_O3,2.4256,-2.486273411249999,2.2079276758982274,2.430248638420524,3.4637445156588917,1,251,BaGa4O7_Va_O3251,-2.0,-1.9033208365608856,-1.9033208365608856,0.9516604182804428,-1.8812876656363955,6.317427553105366
887,BaGa4O7,BaGa4O7_Va_O3,2.4256,-2.486273411249999,2.2079276758982274,2.430248638420524,1.7129957041069055,2,251,BaGa4O7_Va_O3251,-2.0,-1.9033208365608856,-1.9033208365608856,0.9516604182804428,-1.8812876656363955,6.317427553105366
890,BaGa4O7,BaGa4O7_Va_O4,2.4256,-2.486273411249999,2.207244346453633,2.4264080351591204,4.440331379999984,0,215,BaGa4O7_Va_O4215,-2.0,-1.836163388789838,-1.8361633887898376,0.9180816943949188,-1.8812876656363955,6.094521197647369
892,BaGa4O7,BaGa4O7_Va_O4,2.4256,-2.486273411249999,2.207244346453633,2.4264080351591204,3.265648159709074,1,215,BaGa4O7_Va_O4215,-2.0,-1.836163388789838,-1.8361633887898376,0.9180816943949188,-1.8812876656363955,6.094521197647369
894,BaGeO3,BaGeO3_Va_O1,3.4095,-2.6960020335,2.0186865948217916,1.490996637447907,3.923291630000003,0,71,BaGeO3_Va_O171,-2.0,-1.8348344723049437,-1.8348344723049437,0.9174172361524716,-1.502819088333178,8.124323346715295
897,BaGeO3,BaGeO3_Va_O1,3.4095,-2.6960020335,2.0186865948217916,1.490996637447907,2.838170724500455,1,71,BaGeO3_Va_O171,-2.0,-1.8348344723049437,-1.8348344723049437,0.9174172361524716,-1.502819088333178,8.124323346715295
900,BaGeO3,BaGeO3_Va_O1,3.4095,-2.6960020335,2.0186865948217916,1.490996637447907,1.093834882849702,2,71,BaGeO3_Va_O171,-2.0,-1.8348344723049437,-1.8348344723049437,0.9174172361524716,-1.502819088333178,8.124323346715295
903,BaGeO3,BaGeO3_Va_O2,3.4095,-2.6960020335,2.0131570978094837,1.4936078308699072,3.882139670000024,0,95,BaGeO3_Va_O295,-2.0,-1.7425274640630246,-1.7425274640630246,0.8712637320315123,-1.502819088333178,7.7156041987786494
906,BaGeO3,BaGeO3_Va_O2,3.4095,-2.6960020335,2.0131570978094837,1.4936078308699072,2.831752251157943,1,95,BaGeO3_Va_O295,-2.0,-1.7425274640630246,-1.7425274640630246,0.8712637320315123,-1.502819088333178,7.7156041987786494
909,BaGeO3,BaGeO3_Va_O2,3.4095,-2.6960020335,2.0131570978094837,1.4936078308699072,2.0705808488734525,2,95,BaGeO3_Va_O295,-2.0,-1.7425274640630246,-1.7425274640630246,0.8712637320315123,-1.502819088333178,7.7156041987786494
912,BaGeO3,BaGeO3_Va_O3,3.4095,-2.6960020335,2.316511368749405,2.730229943585275,4.183732449999988,0,119,BaGeO3_Va_O3119,-2.0,-1.636150881297181,-1.8215331388578235,0.8180754406485905,-1.502819088333178,6.160630144741427
915,BaGeO3,BaGeO3_Va_O3,3.4095,-2.6960020335,2.316511368749405,2.730229943585275,2.439628506503587,1,119,BaGeO3_Va_O3119,-2.0,-1.636150881297181,-1.8215331388578235,0.8180754406485905,-1.502819088333178,6.160630144741427
918,BaGeO3,BaGeO3_Va_O3,3.4095,-2.6960020335,2.316511368749405,2.730229943585275,-0.3786628025515486,2,119,BaGeO3_Va_O3119,-2.0,-1.636150881297181,-1.8215331388578235,0.8180754406485905,-1.502819088333178,6.160630144741427
921,BaGePbO4,BaGePbO4_Va_O1,3.3755,-2.3497993528571435,2.2075584447447465,2.290866305566537,4.3736559499997245,0,191,BaGePbO4_Va_O1191,-2.0,-1.8813912131303712,-1.8813912131303712,0.9406956065651856,-1.1369603723458594,8.357940607170486
923,BaGePbO4,BaGePbO4_Va_O1,3.3755,-2.3497993528571435,2.2075584447447465,2.290866305566537,2.317810102001155,1,191,BaGePbO4_Va_O1191,-2.0,-1.8813912131303712,-1.8813912131303712,0.9406956065651856,-1.1369603723458594,8.357940607170486
925,BaGePbO4,BaGePbO4_Va_O2,3.3755,-2.3497993528571435,2.110424425675723,1.6952815919881998,4.0832100299998135,0,239,BaGePbO4_Va_O2239,-2.0,-1.6355260385278911,-1.6355260385278911,0.8177630192639456,-1.1369603723458594,5.85426007766779
928,BaGePbO4,BaGePbO4_Va_O2,3.3755,-2.3497993528571435,2.110424425675723,1.6952815919881998,2.7724702706881565,1,239,BaGePbO4_Va_O2239,-2.0,-1.6355260385278911,-1.6355260385278911,0.8177630192639456,-1.1369603723458594,5.85426007766779
931,BaGePbO4,BaGePbO4_Va_O2,3.3755,-2.3497993528571435,2.110424425675723,1.6952815919881998,0.313473227783139,2,239,BaGePbO4_Va_O2239,-2.0,-1.6355260385278911,-1.6355260385278911,0.8177630192639456,-1.1369603723458594,5.85426007766779
934,BaGePbO4,BaGePbO4_Va_O3,3.3755,-2.3497993528571435,2.2985402101320074,2.0406621833416136,4.327281769999795,0,287,BaGePbO4_Va_O3287,-2.0,-1.870114427587249,-1.8701144275872488,0.9350572137936244,-1.1369603723458594,8.307844325678666
937,BaGePbO4,BaGePbO4_Va_O3,3.3755,-2.3497993528571435,2.2985402101320074,2.0406621833416136,2.3951274725023044,1,287,BaGePbO4_Va_O3287,-2.0,-1.870114427587249,-1.8701144275872488,0.9350572137936244,-1.1369603723458594,8.307844325678666