,formula,full_name,band_gap,formation_energy,nn_ave_eleneg,o2p_center_from_vbm,vacancy_formation_energy,charge,vacancy_index,merge_on,valence,bv_sum_Crystal,bv_sum_nn,BVS_ratio,vr_max,Eb_sum
4601,NaSrBO3,NaSrBO3_Va_O2,3.9354,-2.8850838603975086,1.530719698052853,2.576553371972847,1.951205805489488,2,413,NaSrBO3_Va_O2413,-2.0,-0.9762223376473153,-1.8938510404289883,0.4881111688236576,-2.158566424325179,2.6536080147498464
4604,NaSrBO3,NaSrBO3_Va_O3,3.9354,-2.8850838603975086,1.586647986950031,2.5729998900650113,6.986209369999765,0,341,NaSrBO3_Va_O3341,-2.0,-0.984738261554554,-1.8151893979278384,0.492369130777277,-2.158566424325179,2.6767563520309925
4606,NaSrBO3,NaSrBO3_Va_O3,3.9354,-2.8850838603975086,1.586647986950031,2.5729998900650113,4.439287662250911,1,341,NaSrBO3_Va_O3341,-2.0,-0.984738261554554,-1.8151893979278384,0.492369130777277,-2.158566424325179,2.6767563520309925
4608,NaTlO2,NaTlO2_Va_O1,0.6733000000000002,-1.424646257471264,1.366920583119467,1.802853675514203,-0.3463197074339175,2,299,NaTlO2_Va_O1299,-2.0,-2.392177166624528,-2.3921771666245277,1.196088583312264,-0.5778080287901701,8.760907304565233
4609,NaTlO,NaTlO_Va_O1,0.8978000000000002,-1.1787883499616862,1.2422159308837428,1.7512018986452371,1.059124736357269,2,431,NaTlO_Va_O1431,-2.0,-1.9535489906925632,-1.9535489906925632,0.9767744953462816,-0.8674893634033586,7.297059776395357
4623,Rb2Al2Sb2O7,Rb2Al2Sb2O7_Va_O1,3.4936000000000003,-2.5277962692307687,1.9017394217521548,2.2332136127623827,5.4706412400002,0,233,Rb2Al2Sb2O7_Va_O1233,-2.0,-1.8886247825966729,-1.8886247825966729,0.9443123912983364,-1.2369755737418262,5.775344817118434
4626,Rb2Al2Sb2O7,Rb2Al2Sb2O7_Va_O1,3.4936000000000003,-2.5277962692307687,1.9017394217521548,2.2332136127623827,3.5416082583549517,1,233,Rb2Al2Sb2O7_Va_O1233,-2.0,-1.8886247825966729,-1.8886247825966729,0.9443123912983364,-1.2369755737418262,5.775344817118434
4629,Rb2Al2Sb2O7,Rb2Al2Sb2O7_Va_O1,3.4936000000000003,-2.5277962692307687,1.9017394217521548,2.2332136127623827,1.8439370523987904,2,233,Rb2Al2Sb2O7_Va_O1233,-2.0,-1.8886247825966729,-1.8886247825966729,0.9443123912983364,-1.2369755737418262,5.775344817118434
4632,Rb2Al2Sb2O7,Rb2Al2Sb2O7_Va_O2,3.4936000000000003,-2.5277962692307687,2.0422653601682996,1.624469458701181,6.198865110000165,0,215,Rb2Al2Sb2O7_Va_O2215,-2.0,-1.8696727567750095,-1.8696727567750095,0.9348363783875048,-1.2369755737418262,4.977599635993489
4635,Rb2Al2Sb2O7,Rb2Al2Sb2O7_Va_O2,3.4936000000000003,-2.5277962692307687,2.0422653601682996,1.624469458701181,4.918716202882359,1,215,Rb2Al2Sb2O7_Va_O2215,-2.0,-1.8696727567750095,-1.8696727567750095,0.9348363783875048,-1.2369755737418262,4.977599635993489
4638,Rb2Al2Sb2O7,Rb2Al2Sb2O7_Va_O2,3.4936000000000003,-2.5277962692307687,2.0422653601682996,1.624469458701181,3.8543203626487705,2,215,Rb2Al2Sb2O7_Va_O2215,-2.0,-1.8696727567750095,-1.8696727567750095,0.9348363783875048,-1.2369755737418262,4.977599635993489
4641,Rb2Be2O3,Rb2Be2O3_Va_O1,2.4254,-2.377723397857143,1.3186439947914728,2.264499680717455,6.707784469999874,0,335,Rb2Be2O3_Va_O1335,-2.0,-1.1830251267319205,-1.5470110767224723,0.5915125633659601,-1.7562254794348755,3.618869686247985
4644,Rb2Be2O3,Rb2Be2O3_Va_O1,2.4254,-2.377723397857143,1.3186439947914728,2.264499680717455,4.9182645670409695,1,335,Rb2Be2O3_Va_O1335,-2.0,-1.1830251267319205,-1.5470110767224723,0.5915125633659601,-1.7562254794348755,3.618869686247985
4647,Rb2Be2O3,Rb2Be2O3_Va_O1,2.4254,-2.377723397857143,1.3186439947914728,2.264499680717455,3.438704497471576,2,335,Rb2Be2O3_Va_O1335,-2.0,-1.1830251267319205,-1.5470110767224723,0.5915125633659601,-1.7562254794348755,3.618869686247985
4650,Rb2Be2O3,Rb2Be2O3_Va_O2,2.4254,-2.377723397857143,1.3098038993263637,2.3666260707242195,7.1476963799999655,0,323,Rb2Be2O3_Va_O2323,-2.0,-1.1836353190585265,-1.5891116309539814,0.5918176595292632,-1.7562254794348755,3.620736262420916
4653,Rb2Be2O3,Rb2Be2O3_Va_O2,2.4254,-2.377723397857143,1.3098038993263637,2.3666260707242195,4.999968065909501,1,323,Rb2Be2O3_Va_O2323,-2.0,-1.1836353190585265,-1.5891116309539814,0.5918176595292632,-1.7562254794348755,3.620736262420916
4656,Rb2Be2O3,Rb2Be2O3_Va_O2,2.4254,-2.377723397857143,1.3098038993263637,2.3666260707242195,3.501546069078046,2,323,Rb2Be2O3_Va_O2323,-2.0,-1.1836353190585265,-1.5891116309539814,0.5918176595292632,-1.7562254794348755,3.620736262420916
4659,Rb2CeO3,Rb2CeO3_Va_O1,2.7647000000000004,-2.7078352658333342,1.3460816284187862,1.2315831392512286,4.575105469999821,0,431,Rb2CeO3_Va_O1431,-2.0,-1.8377117765070252,-1.6754232503392692,0.9188558882535126,-1.7562254794348755,8.374016444838569
4662,Rb2CeO3,Rb2CeO3_Va_O1,2.7647000000000004,-2.7078352658333342,1.3460816284187862,1.2315831392512286,2.9514354267229415,1,431,Rb2CeO3_Va_O1431,-2.0,-1.8377117765070252,-1.6754232503392692,0.9188558882535126,-1.7562254794348755,8.374016444838569
4665,Rb2CeO3,Rb2CeO3_Va_O1,2.7647000000000004,-2.7078352658333342,1.3460816284187862,1.2315831392512286,1.518844803219732,2,431,Rb2CeO3_Va_O1431,-2.0,-1.8377117765070252,-1.6754232503392692,0.9188558882535126,-1.7562254794348755,8.374016444838569
4668,Rb2CeO3,Rb2CeO3_Va_O2,2.7647000000000004,-2.7078352658333342,1.3443625233666276,1.209487160859462,4.531084509999696,0,395,Rb2CeO3_Va_O2395,-2.0,-1.7630221066708045,-1.6403306580182286,0.8815110533354023,-1.7562254794348755,8.033673344541914
4671,Rb2CeO3,Rb2CeO3_Va_O2,2.7647000000000004,-2.7078352658333342,1.3443625233666276,1.209487160859462,2.8888394739328636,1,395,Rb2CeO3_Va_O2395,-2.0,-1.7630221066708045,-1.6403306580182286,0.8815110533354023,-1.7562254794348755,8.033673344541914
4674,Rb2CeO3,Rb2CeO3_Va_O2,2.7647000000000004,-2.7078352658333342,1.3443625233666276,1.209487160859462,1.4349999465137309,2,395,Rb2CeO3_Va_O2395,-2.0,-1.7630221066708045,-1.6403306580182286,0.8815110533354023,-1.7562254794348755,8.033673344541914
4677,Rb2Li2GeO4,Rb2Li2GeO4_Va_O1,3.4064,-2.1233419424074076,1.2371664473941908,1.6308418109381742,4.857719340000026,0,215,Rb2Li2GeO4_Va_O1215,-2.0,-1.4302578100960917,-1.617924521232586,0.7151289050480458,-1.502819088333178,4.84822948648443
4680,Rb2Li2GeO4,Rb2Li2GeO4_Va_O1,3.4064,-2.1233419424074076,1.2371664473941908,1.6308418109381742,3.5434411583541614,1,215,Rb2Li2GeO4_Va_O1215,-2.0,-1.4302578100960917,-1.617924521232586,0.7151289050480458,-1.502819088333178,4.84822948648443
4683,Rb2Li2GeO4,Rb2Li2GeO4_Va_O1,3.4064,-2.1233419424074076,1.2371664473941908,1.6308418109381742,2.7896073124634335,2,215,Rb2Li2GeO4_Va_O1215,-2.0,-1.4302578100960917,-1.617924521232586,0.7151289050480458,-1.502819088333178,4.84822948648443
4686,Rb2Li2GeO4,Rb2Li2GeO4_Va_O2,3.4064,-2.1233419424074076,1.2326544278601768,1.7740393690188097,5.181143200000074,0,251,Rb2Li2GeO4_Va_O2251,-2.0,-1.5142316421157,-1.6470034136624812,0.75711582105785,-1.502819088333178,6.273929500276271
4689,Rb2Li2GeO4,Rb2Li2GeO4_Va_O2,3.4064,-2.1233419424074076,1.2326544278601768,1.7740393690188097,3.699129833701568,1,251,Rb2Li2GeO4_Va_O2251,-2.0,-1.5142316421157,-1.6470034136624812,0.75711582105785,-1.502819088333178,6.273929500276271
4692,Rb2Li2GeO4,Rb2Li2GeO4_Va_O2,3.4064,-2.1233419424074076,1.2326544278601768,1.7740393690188097,2.8193045779574755,2,251,Rb2Li2GeO4_Va_O2251,-2.0,-1.5142316421157,-1.6470034136624812,0.75711582105785,-1.502819088333178,6.273929500276271
4695,Rb2Li2GeO4,Rb2Li2GeO4_Va_O3,3.4064,-2.1233419424074076,1.3512413571117623,1.3291855247859476,4.236460040000006,0,287,Rb2Li2GeO4_Va_O3287,-2.0,-1.0410576631426414,-1.606238053674673,0.5205288315713207,-1.502819088333178,1.9599571455432596
4698,Rb2Li2GeO4,Rb2Li2GeO4_Va_O3,3.4064,-2.1233419424074076,1.3512413571117623,1.3291855247859476,3.2241135267808785,1,287,Rb2Li2GeO4_Va_O3287,-2.0,-1.0410576631426414,-1.606238053674673,0.5205288315713207,-1.502819088333178,1.9599571455432596
4701,Rb2Li2GeO4,Rb2Li2GeO4_Va_O3,3.4064,-2.1233419424074076,1.3512413571117623,1.3291855247859476,2.193257120801509,2,287,Rb2Li2GeO4_Va_O3287,-2.0,-1.0410576631426414,-1.606238053674673,0.5205288315713207,-1.502819088333178,1.9599571455432596
4704,Rb2Li2GeO4,Rb2Li2GeO4_Va_O4,3.4064,-2.1233419424074076,1.2399846243087431,1.854573897690014,5.057698799999921,0,323,Rb2Li2GeO4_Va_O4323,-2.0,-1.4769481243698577,-1.4769481243698577,0.7384740621849288,-1.502819088333178,6.119452367878689
4707,Rb2Li2GeO4,Rb2Li2GeO4_Va_O4,3.4064,-2.1233419424074076,1.2399846243087431,1.854573897690014,3.466628238260899,1,323,Rb2Li2GeO4_Va_O4323,-2.0,-1.4769481243698577,-1.4769481243698577,0.7384740621849288,-1.502819088333178,6.119452367878689
4710,Rb2Li2GeO4,Rb2Li2GeO4_Va_O4,3.4064,-2.1233419424074076,1.2399846243087431,1.854573897690014,2.513591230582664,2,323,Rb2Li2GeO4_Va_O4323,-2.0,-1.4769481243698577,-1.4769481243698577,0.7384740621849288,-1.502819088333178,6.119452367878689
4713,Rb2Li2SiO4,Rb2Li2SiO4_Va_O1,4.0457,-2.497921448518519,1.2541720531666507,2.0069932329953044,6.693096860000091,0,215,Rb2Li2SiO4_Va_O1215,-2.0,-1.6628935174371893,-1.8492478213125656,0.8314467587185946,-1.7562254794348755,6.511809934573704
4716,Rb2Li2SiO4,Rb2Li2SiO4_Va_O1,4.0457,-2.497921448518519,1.2541720531666507,2.0069932329953044,4.7712572564621745,1,215,Rb2Li2SiO4_Va_O1215,-2.0,-1.6628935174371893,-1.8492478213125656,0.8314467587185946,-1.7562254794348755,6.511809934573704
4719,Rb2Li2SiO4,Rb2Li2SiO4_Va_O1,4.0457,-2.497921448518519,1.2541720531666507,2.0069932329953044,3.640134306270863,2,215,Rb2Li2SiO4_Va_O1215,-2.0,-1.6628935174371893,-1.8492478213125656,0.8314467587185946,-1.7562254794348755,6.511809934573704
4722,Rb2Li2SiO4,Rb2Li2SiO4_Va_O2,4.0457,-2.497921448518519,1.2467161043174848,2.1810237774861636,6.889898900000057,0,251,Rb2Li2SiO4_Va_O2251,-2.0,-1.7595257138088,-1.8825080917450157,0.8797628569044,-1.7562254794348755,8.21610715134738
4725,Rb2Li2SiO4,Rb2Li2SiO4_Va_O2,4.0457,-2.497921448518519,1.2467161043174848,2.1810237774861636,4.816943426451105,1,251,Rb2Li2SiO4_Va_O2251,-2.0,-1.7595257138088,-1.8825080917450157,0.8797628569044,-1.7562254794348755,8.21610715134738
4728,Rb2Li2SiO4,Rb2Li2SiO4_Va_O2,4.0457,-2.497921448518519,1.2467161043174848,2.1810237774861636,3.5915309811290683,2,251,Rb2Li2SiO4_Va_O2251,-2.0,-1.7595257138088,-1.8825080917450157,0.8797628569044,-1.7562254794348755,8.21610715134738
4731,Rb2Li2SiO4,Rb2Li2SiO4_Va_O3,4.0457,-2.497921448518519,1.37289685755873,1.6015274357297469,6.3491138000000635,0,287,Rb2Li2SiO4_Va_O3287,-2.0,-1.2581760694383104,-1.8453150799219435,0.6290880347191552,-1.7562254794348755,3.0307594938748617
4734,Rb2Li2SiO4,Rb2Li2SiO4_Va_O3,4.0457,-2.497921448518519,1.37289685755873,1.6015274357297469,4.721237098109178,1,287,Rb2Li2SiO4_Va_O3287,-2.0,-1.2581760694383104,-1.8453150799219435,0.6290880347191552,-1.7562254794348755,3.0307594938748617
4737,Rb2Li2SiO4,Rb2Li2SiO4_Va_O3,4.0457,-2.497921448518519,1.37289685755873,1.6015274357297469,3.106157334773181,2,287,Rb2Li2SiO4_Va_O3287,-2.0,-1.2581760694383104,-1.8453150799219435,0.6290880347191552,-1.7562254794348755,3.0307594938748617
4740,Rb2Li2SiO4,Rb2Li2SiO4_Va_O4,4.0457,-2.497921448518519,1.2682150732828297,2.2270934773805617,6.848308989999973,0,323,Rb2Li2SiO4_Va_O4323,-2.0,-1.6738584296370431,-1.6738584296370431,0.8369292148185216,-1.7562254794348755,7.8160836787739285
4743,Rb2Li2SiO4,Rb2Li2SiO4_Va_O4,4.0457,-2.497921448518519,1.2682150732828297,2.2270934773805617,4.700496843580422,1,323,Rb2Li2SiO4_Va_O4323,-2.0,-1.6738584296370431,-1.6738584296370431,0.8369292148185216,-1.7562254794348755,7.8160836787739285
4746,Rb2Li2SiO4,Rb2Li2SiO4_Va_O4,4.0457,-2.497921448518519,1.2682150732828297,2.2270934773805617,3.3439019558287697,2,323,Rb2Li2SiO4_Va_O4323,-2.0,-1.6738584296370431,-1.6738584296370431,0.8369292148185216,-1.7562254794348755,7.8160836787739285
4749,Rb2Li3GaO4,Rb2Li3GaO4_Va_O1,3.5932000000000004,-2.0277087522499997,1.1360217436941256,1.412355801316802,5.54529603000004,0,79,Rb2Li3GaO4_Va_O179,-2.0,-1.2673252209009758,-1.2673252209009758,0.6336626104504879,-1.7562254794348755,4.430614210331875
4752,Rb2Li3GaO4,Rb2Li3GaO4_Va_O1,3.5932000000000004,-2.0277087522499997,1.1360217436941256,1.412355801316802,3.997703054634834,1,79,Rb2Li3GaO4_Va_O179,-2.0,-1.2673252209009758,-1.2673252209009758,0.6336626104504879,-1.7562254794348755,4.430614210331875
4755,Rb2Li3GaO4,Rb2Li3GaO4_Va_O1,3.5932000000000004,-2.0277087522499997,1.1360217436941256,1.412355801316802,3.049015815900074,2,79,Rb2Li3GaO4_Va_O179,-2.0,-1.2673252209009758,-1.2673252209009758,0.6336626104504879,-1.7562254794348755,4.430614210331875
4758,Rb2LiAsO4,Rb2LiAsO4_Va_O1,3.6926,-2.109026203541667,1.5404627506685689,2.032133525623072,3.687425139999968,0,111,Rb2LiAsO4_Va_O1111,-2.0,-1.7392041661954454,-1.7392041661954454,0.8696020830977227,-0.6589084382122885,3.785130936307528
4760,Rb2LiAsO4,Rb2LiAsO4_Va_O1,3.6926,-2.109026203541667,1.5404627506685689,2.032133525623072,2.5388462256092144,1,111,Rb2LiAsO4_Va_O1111,-2.0,-1.7392041661954454,-1.7392041661954454,0.8696020830977227,-0.6589084382122885,3.785130936307528
4762,Rb2LiAsO4,Rb2LiAsO4_Va_O2,3.6926,-2.109026203541667,1.4624443289524658,1.9392237533867864,3.808712850000015,0,95,Rb2LiAsO4_Va_O295,-2.0,-1.9875947863080807,-1.8282950202400343,0.9937973931540404,-0.6589084382122885,8.209702147915934
4765,Rb2LiAsO4,Rb2LiAsO4_Va_O2,3.6926,-2.109026203541667,1.4624443289524658,1.9392237533867864,2.6849597622143495,1,95,Rb2LiAsO4_Va_O295,-2.0,-1.9875947863080807,-1.8282950202400343,0.9937973931540404,-0.6589084382122885,8.209702147915934
4768,Rb2LiAsO4,Rb2LiAsO4_Va_O2,3.6926,-2.109026203541667,1.4624443289524658,1.9392237533867864,2.4314682607255684,2,95,Rb2LiAsO4_Va_O295,-2.0,-1.9875947863080807,-1.8282950202400343,0.9937973931540404,-0.6589084382122885,8.209702147915934
4771,Rb2LiAsO4,Rb2LiAsO4_Va_O3,3.6926,-2.109026203541667,1.4152021281468703,2.003576523478788,3.6789111299999697,0,127,Rb2LiAsO4_Va_O3127,-2.0,-1.964139461765466,-1.7914467753077008,0.982069730882733,-0.6589084382122885,8.112820615722317
4774,Rb2LiAsO4,Rb2LiAsO4_Va_O3,3.6926,-2.109026203541667,1.4152021281468703,2.003576523478788,2.496336993346202,1,127,Rb2LiAsO4_Va_O3127,-2.0,-1.964139461765466,-1.7914467753077008,0.982069730882733,-0.6589084382122885,8.112820615722317
4777,Rb2LiAsO4,Rb2LiAsO4_Va_O3,3.6926,-2.109026203541667,1.4152021281468703,2.003576523478788,2.3925513585213354,2,127,Rb2LiAsO4_Va_O3127,-2.0,-1.964139461765466,-1.7914467753077008,0.982069730882733,-0.6589084382122885,8.112820615722317
4780,Rb2MgO2,Rb2MgO2_Va_O1,2.5014000000000003,-1.9070924115,1.0564066381675623,1.1061368225352242,6.16237320999995,0,79,Rb2MgO2_Va_O179,-2.0,-0.845435907725116,-1.23401162340414,0.422717953862558,-1.7562254794348755,1.4576927825469936
4783,Rb2MgO2,Rb2MgO2_Va_O1,2.5014000000000003,-1.9070924115,1.0564066381675623,1.1061368225352242,4.713727234443021,1,79,Rb2MgO2_Va_O179,-2.0,-0.845435907725116,-1.23401162340414,0.422717953862558,-1.7562254794348755,1.4576927825469936
4786,Rb2MgO2,Rb2MgO2_Va_O1,2.5014000000000003,-1.9070924115,1.0564066381675623,1.1061368225352242,4.35286206729705,2,79,Rb2MgO2_Va_O179,-2.0,-0.845435907725116,-1.23401162340414,0.422717953862558,-1.7562254794348755,1.4576927825469936
4789,Rb2O,Rb2O_Va_O1,1.4732,-1.133168373333333,0.82,0.3969127188451622,4.461725070000009,0,95,Rb2O_Va_O195,-2.0,-0.9735976637551466,-0.9735976637551468,0.4867988318775733,-1.7562254794348755,3.805039196206132
4792,Rb2O,Rb2O_Va_O1,1.4732,-1.133168373333333,0.82,0.3969127188451622,3.8917412269279303,1,95,Rb2O_Va_O195,-2.0,-0.9735976637551466,-0.9735976637551468,0.4867988318775733,-1.7562254794348755,3.805039196206132
4795,Rb2O,Rb2O_Va_O1,1.4732,-1.133168373333333,0.82,0.3969127188451622,4.855493691590057,2,95,Rb2O_Va_O195,-2.0,-0.9735976637551466,-0.9735976637551468,0.4867988318775733,-1.7562254794348755,3.805039196206132
4798,Rb2Pb2O3,Rb2Pb2O3_Va_O1,1.6844,-1.539362617142857,1.6705273842002886,2.3156563089413096,4.134989309999932,0,223,Rb2Pb2O3_Va_O1223,-2.0,-1.820612575604484,-1.6726437575358453,0.910306287802242,-1.1369603723458594,6.700023460269103
4800,Rb2Pb2O3,Rb2Pb2O3_Va_O1,1.6844,-1.539362617142857,1.6705273842002886,2.3156563089413096,2.499741134779934,1,223,Rb2Pb2O3_Va_O1223,-2.0,-1.820612575604484,-1.6726437575358453,0.910306287802242,-1.1369603723458594,6.700023460269103
4802,Rb2PbO2,Rb2PbO2_Va_O1,1.8371,-1.499867704999999,1.2705026702586748,1.2183706302997377,2.9763214287761635,1,251,Rb2PbO2_Va_O1251,-2.0,-1.624675654732428,-1.6246756547324277,0.812337827366214,-1.1369603723458594,5.370578238039609
4804,Rb2PbO2,Rb2PbO2_Va_O1,1.8371,-1.499867704999999,1.2705026702586748,1.2183706302997377,2.678886296319489,2,251,Rb2PbO2_Va_O1251,-2.0,-1.624675654732428,-1.6246756547324277,0.812337827366214,-1.1369603723458594,5.370578238039609
4806,Rb2PbO2,Rb2PbO2_Va_O2,1.8371,-1.499867704999999,1.5562767872176382,1.9460636008394605,4.12975662999987,0,287,Rb2PbO2_Va_O2287,-2.0,-1.7104941238242202,-1.7104941238242202,0.8552470619121101,-1.1369603723458594,6.2947773248625545
4809,Rb2PbO2,Rb2PbO2_Va_O2,1.8371,-1.499867704999999,1.5562767872176382,1.9460636008394605,2.609374506362818,1,287,Rb2PbO2_Va_O2287,-2.0,-1.7104941238242202,-1.7104941238242202,0.8552470619121101,-1.1369603723458594,6.2947773248625545
4812,Rb2PbO2,Rb2PbO2_Va_O2,1.8371,-1.499867704999999,1.5562767872176382,1.9460636008394605,1.5490911414123096,2,287,Rb2PbO2_Va_O2287,-2.0,-1.7104941238242202,-1.7104941238242202,0.8552470619121101,-1.1369603723458594,6.2947773248625545
4815,Rb2PbO2,Rb2PbO2_Va_O3,1.8371,-1.499867704999999,1.2416992022539106,1.2687788231105346,4.4865454799997995,0,323,Rb2PbO2_Va_O3323,-2.0,-1.5706854087793358,-1.5706854087793358,0.7853427043896679,-1.1369603723458594,5.19210640636202
4818,Rb2PbO2,Rb2PbO2_Va_O3,1.8371,-1.499867704999999,1.2416992022539106,1.2687788231105346,3.0048716340510744,1,323,Rb2PbO2_Va_O3323,-2.0,-1.5706854087793358,-1.5706854087793358,0.7853427043896679,-1.1369603723458594,5.19210640636202
4821,Rb2PbO2,Rb2PbO2_Va_O3,1.8371,-1.499867704999999,1.2416992022539106,1.2687788231105346,2.7390872888536486,2,323,Rb2PbO2_Va_O3323,-2.0,-1.5706854087793358,-1.5706854087793358,0.7853427043896679,-1.1369603723458594,5.19210640636202
4824,Rb2PbO2,Rb2PbO2_Va_O4,1.8371,-1.499867704999999,1.65477550972542,1.8747073643696075,4.0796532799998975,0,359,Rb2PbO2_Va_O4359,-2.0,-1.730932604079289,-1.730932604079289,0.8654663020396445,-1.1369603723458594,5.524383468159279
4827,Rb2PbO2,Rb2PbO2_Va_O4,1.8371,-1.499867704999999,1.65477550972542,1.8747073643696075,2.5816087265062935,1,359,Rb2PbO2_Va_O4359,-2.0,-1.730932604079289,-1.730932604079289,0.8654663020396445,-1.1369603723458594,5.524383468159279
4830,Rb2PbO2,Rb2PbO2_Va_O4,1.8371,-1.499867704999999,1.65477550972542,1.8747073643696075,1.7977403735666289,2,359,Rb2PbO2_Va_O4359,-2.0,-1.730932604079289,-1.730932604079289,0.8654663020396445,-1.1369603723458594,5.524383468159279
4833,Rb2PbO3,Rb2PbO3_Va_O1,1.3140999999999998,-1.5558054725000003,1.7521345462698212,1.611960507424275,1.49076071778647,1,431,Rb2PbO3_Va_O1431,-2.0,-1.7997049805208292,-1.7451142034884115,0.8998524902604146,-0.2712847561180753,6.538828643164178
4835,Rb2PbO3,Rb2PbO3_Va_O1,1.3140999999999998,-1.5558054725000003,1.7521345462698212,1.611960507424275,0.4116864995264357,2,431,Rb2PbO3_Va_O1431,-2.0,-1.7997049805208292,-1.7451142034884115,0.8998524902604146,-0.2712847561180753,6.538828643164178
4837,Rb2PbO3,Rb2PbO3_Va_O2,1.3140999999999998,-1.5558054725000003,1.512566128673175,0.824836430678038,1.954460719999938,0,377,Rb2PbO3_Va_O2377,-2.0,-1.7095020040555282,-1.7095020040555282,0.8547510020277641,-0.2712847561180753,4.775827895686233
4839,Rb2PbO3,Rb2PbO3_Va_O2,1.3140999999999998,-1.5558054725000003,1.512566128673175,0.824836430678038,1.7480514222384258,1,377,Rb2PbO3_Va_O2377,-2.0,-1.7095020040555282,-1.7095020040555282,0.8547510020277641,-0.2712847561180753,4.775827895686233
4841,Rb2Si3SnO9,Rb2Si3SnO9_Va_O1,3.9782,-2.8654779920000006,2.265288420966906,2.3971505888352076,5.664814660000056,0,95,Rb2Si3SnO9_Va_O195,-2.0,-2.0704281163874567,-2.193959191351033,1.0352140581937284,-1.538575818365933,7.459169650182224