,formula,full_name,band_gap,formation_energy,nn_ave_eleneg,o2p_center_from_vbm,vacancy_formation_energy,charge,vacancy_index,merge_on,valence,bv_sum_Crystal,bv_sum_nn,BVS_ratio,vr_max,Eb_sum
3086,Li2O,Li2O_Va_O1,4.8772,-2.061597913888889,0.98,1.168204519962669,5.394661848935825,1,95,Li2O_Va_O195,-2.0,-1.6307834702785071,-1.630783470278507,0.8153917351392537,-3.1005489752967774,9.831012445621905
3089,Li2O,Li2O_Va_O1,4.8772,-2.061597913888889,0.98,1.168204519962669,4.776629150980302,2,95,Li2O_Va_O195,-2.0,-1.6307834702785071,-1.630783470278507,0.8153917351392537,-3.1005489752967774,9.831012445621905
3092,Li2PbO3,Li2PbO3_Va_O1,1.0986000000000002,-1.7885059302777786,1.4600216762273797,1.5874226460273682,-0.0731489430461125,2,287,Li2PbO3_Va_O1287,-2.0,-1.9982791138559783,-1.9982791138559783,0.9991395569279892,-0.2712847561180753,9.378652309461533
3093,Li2PbO3,Li2PbO3_Va_O2,1.0986000000000002,-1.7885059302777786,1.4761435334040791,1.7061214971194472,-0.4529327161937169,2,431,Li2PbO3_Va_O2431,-2.0,-1.839490879640532,-1.839490879640532,0.919745439820266,-0.2712847561180753,8.633401243574975
3094,Li2Si2O5,Li2Si2O5_Va_O1,5.181900000000001,-3.0159132185185182,1.4450636453115957,1.6605604586914726,6.351993590000243,0,323,Li2Si2O5_Va_O1323,-2.0,-2.1284958882417224,-2.140360410735612,1.0642479441208612,-2.356834901289411,9.939013764760844
3097,Li2Si2O5,Li2Si2O5_Va_O1,5.181900000000001,-3.0159132185185182,1.4450636453115957,1.6605604586914726,4.953261076265294,1,323,Li2Si2O5_Va_O1323,-2.0,-2.1284958882417224,-2.140360410735612,1.0642479441208612,-2.356834901289411,9.939013764760844
3100,Li2Si2O5,Li2Si2O5_Va_O1,5.181900000000001,-3.0159132185185182,1.4450636453115957,1.6605604586914726,3.61192437563254,2,323,Li2Si2O5_Va_O1323,-2.0,-2.1284958882417224,-2.140360410735612,1.0642479441208612,-2.356834901289411,9.939013764760844
3103,Li2Si2O5,Li2Si2O5_Va_O2,5.181900000000001,-3.0159132185185182,2.5468374981907833,3.348491891953108,6.090730000000244,0,233,Li2Si2O5_Va_O2233,-2.0,-2.5560803977262117,-2.5560803977262117,1.2780401988631058,-2.356834901289411,12.314436938821439
3106,Li2Si2O5,Li2Si2O5_Va_O2,5.181900000000001,-3.0159132185185182,2.5468374981907833,3.348491891953108,4.703213099538201,1,233,Li2Si2O5_Va_O2233,-2.0,-2.5560803977262117,-2.5560803977262117,1.2780401988631058,-2.356834901289411,12.314436938821439
3109,Li2Si2O5,Li2Si2O5_Va_O2,5.181900000000001,-3.0159132185185182,2.5468374981907833,3.348491891953108,2.8428148470641306,2,233,Li2Si2O5_Va_O2233,-2.0,-2.5560803977262117,-2.5560803977262117,1.2780401988631058,-2.356834901289411,12.314436938821439
3112,Li2Si2O5,Li2Si2O5_Va_O3,5.181900000000001,-3.0159132185185182,2.11392758697035,3.5481317001341894,6.377834020000032,0,305,Li2Si2O5_Va_O3305,-2.0,-2.417740143462609,-2.417740143462609,1.2088700717313046,-2.356834901289411,13.469842239210887
3114,Li2Si2O5,Li2Si2O5_Va_O3,5.181900000000001,-3.0159132185185182,2.11392758697035,3.5481317001341894,4.668858073937589,1,305,Li2Si2O5_Va_O3305,-2.0,-2.417740143462609,-2.417740143462609,1.2088700717313046,-2.356834901289411,13.469842239210887
3116,Li2SiO3,Li2SiO3_Va_O1,5.1448,-2.882895587777778,1.7543676249109714,3.765117542940948,6.508511050000047,0,79,Li2SiO3_Va_O179,-2.0,-2.284044537857465,-2.284044537857465,1.1420222689287325,-2.356834901289411,14.446131485344338
3119,Li2SiO3,Li2SiO3_Va_O1,5.1448,-2.882895587777778,1.7543676249109714,3.765117542940948,4.319276177913611,1,79,Li2SiO3_Va_O179,-2.0,-2.284044537857465,-2.284044537857465,1.1420222689287325,-2.356834901289411,14.446131485344338
3122,Li2SiO3,Li2SiO3_Va_O1,5.1448,-2.882895587777778,1.7543676249109714,3.765117542940948,1.749093315504266,2,79,Li2SiO3_Va_O179,-2.0,-2.284044537857465,-2.284044537857465,1.1420222689287325,-2.356834901289411,14.446131485344338
3125,Li2SiO3,Li2SiO3_Va_O2,5.1448,-2.882895587777778,1.367848009345796,1.9439154367443665,6.448574930000072,0,95,Li2SiO3_Va_O295,-2.0,-2.0769008691291706,-2.094075446559046,1.0384504345645853,-2.356834901289411,9.698090769332198
3128,Li2SiO3,Li2SiO3_Va_O2,5.1448,-2.882895587777778,1.367848009345796,1.9439154367443665,4.866598817486171,1,95,Li2SiO3_Va_O295,-2.0,-2.0769008691291706,-2.094075446559046,1.0384504345645853,-2.356834901289411,9.698090769332198
3131,Li2SiO3,Li2SiO3_Va_O2,5.1448,-2.882895587777778,1.367848009345796,1.9439154367443665,2.842438281759154,2,95,Li2SiO3_Va_O295,-2.0,-2.0769008691291706,-2.094075446559046,1.0384504345645853,-2.356834901289411,9.698090769332198
3134,Li2SnO3,Li2SnO3_Va_O1,3.2893,-2.2246867915277777,1.3884706258381867,1.800804626980335,5.028501769999943,0,95,Li2SnO3_Va_O195,-2.0,-1.7593302384832916,-1.7593302384832916,0.8796651192416458,-1.538575818365933,9.503783860408909
3137,Li2SnO3,Li2SnO3_Va_O1,3.2893,-2.2246867915277777,1.3884706258381867,1.800804626980335,3.050208851892366,1,95,Li2SnO3_Va_O195,-2.0,-1.7593302384832916,-1.7593302384832916,0.8796651192416458,-1.538575818365933,9.503783860408909
3140,Li2SnO3,Li2SnO3_Va_O1,3.2893,-2.2246867915277777,1.3884706258381867,1.800804626980335,1.01217908000189,2,95,Li2SnO3_Va_O195,-2.0,-1.7593302384832916,-1.7593302384832916,0.8796651192416458,-1.538575818365933,9.503783860408909
3143,Li2SnO3,Li2SnO3_Va_O2,3.2893,-2.2246867915277777,1.421818636299479,1.7373979170556284,4.801895669999917,0,79,Li2SnO3_Va_O279,-2.0,-1.7506135318657845,-1.7506135318657847,0.8753067659328921,-1.538575818365933,9.456696796334569
3146,Li2SnO3,Li2SnO3_Va_O2,3.2893,-2.2246867915277777,1.421818636299479,1.7373979170556284,2.8710308249028342,1,79,Li2SnO3_Va_O279,-2.0,-1.7506135318657845,-1.7506135318657847,0.8753067659328921,-1.538575818365933,9.456696796334569
3149,Li2SnO3,Li2SnO3_Va_O2,3.2893,-2.2246867915277777,1.421818636299479,1.7373979170556284,0.8596810617546049,2,79,Li2SnO3_Va_O279,-2.0,-1.7506135318657845,-1.7506135318657847,0.8753067659328921,-1.538575818365933,9.456696796334569
3152,Li2SnO3,Li2SnO3_Va_O3,3.2893,-2.2246867915277777,1.415499632138764,1.7283811814133587,4.833012629999994,0,91,Li2SnO3_Va_O391,-2.0,-1.7447300467823037,-1.744730046782304,0.8723650233911517,-1.538575818365933,9.424914604818584
3155,Li2SnO3,Li2SnO3_Va_O3,3.2893,-2.2246867915277777,1.415499632138764,1.7283811814133587,2.8967368651172647,1,91,Li2SnO3_Va_O391,-2.0,-1.7447300467823037,-1.744730046782304,0.8723650233911517,-1.538575818365933,9.424914604818584
3158,Li2SnO3,Li2SnO3_Va_O3,3.2893,-2.2246867915277777,1.415499632138764,1.7283811814133587,0.906803238153447,2,91,Li2SnO3_Va_O391,-2.0,-1.7447300467823037,-1.744730046782304,0.8723650233911517,-1.538575818365933,9.424914604818584
3161,Li3AsO4,Li3AsO4_Va_O1,4.2397,-2.270408983125,1.5169493855184373,1.9209146331378673,3.925070489999948,0,79,Li3AsO4_Va_O179,-2.0,-2.128294354629073,-2.128294354629073,1.0641471773145366,-0.6589084382122885,7.839482053467734
3164,Li3AsO4,Li3AsO4_Va_O1,4.2397,-2.270408983125,1.5169493855184373,1.9209146331378673,2.803130437191342,1,79,Li3AsO4_Va_O179,-2.0,-2.128294354629073,-2.128294354629073,1.0641471773145366,-0.6589084382122885,7.839482053467734
3167,Li3AsO4,Li3AsO4_Va_O1,4.2397,-2.270408983125,1.5169493855184373,1.9209146331378673,1.8566778643698556,2,79,Li3AsO4_Va_O179,-2.0,-2.128294354629073,-2.128294354629073,1.0641471773145366,-0.6589084382122885,7.839482053467734
3170,Li3AsO4,Li3AsO4_Va_O2,4.2397,-2.270408983125,1.4626668024848646,1.9366917382193185,3.9620100699999146,0,111,Li3AsO4_Va_O2111,-2.0,-2.067955971432722,-2.067955971432722,1.033977985716361,-0.6589084382122885,7.617228176237722
3173,Li3AsO4,Li3AsO4_Va_O2,4.2397,-2.270408983125,1.4626668024848646,1.9366917382193185,2.740268836548691,1,111,Li3AsO4_Va_O2111,-2.0,-2.067955971432722,-2.067955971432722,1.033977985716361,-0.6589084382122885,7.617228176237722
3176,Li3AsO4,Li3AsO4_Va_O2,4.2397,-2.270408983125,1.4626668024848646,1.9366917382193185,1.6939131029011718,2,111,Li3AsO4_Va_O2111,-2.0,-2.067955971432722,-2.067955971432722,1.033977985716361,-0.6589084382122885,7.617228176237722
3179,Li3AsO4,Li3AsO4_Va_O3,4.2397,-2.270408983125,1.471247625471115,1.951400765075329,3.9118312099999546,0,127,Li3AsO4_Va_O3127,-2.0,-2.092356909131266,-2.0923569091312655,1.046178454565633,-0.6589084382122885,7.707107996084757
3182,Li3AsO4,Li3AsO4_Va_O3,4.2397,-2.270408983125,1.471247625471115,1.951400765075329,2.690023639579814,1,127,Li3AsO4_Va_O3127,-2.0,-2.092356909131266,-2.0923569091312655,1.046178454565633,-0.6589084382122885,7.707107996084757
3185,Li3AsO4,Li3AsO4_Va_O3,4.2397,-2.270408983125,1.471247625471115,1.951400765075329,2.4362732184772313,2,127,Li3AsO4_Va_O3127,-2.0,-2.092356909131266,-2.0923569091312655,1.046178454565633,-0.6589084382122885,7.707107996084757
3188,Li3BO3,Li3BO3_Va_O1,5.2981,-2.5554420863095233,1.309903996244476,2.4966280991303913,7.263640589999918,0,59,Li3BO3_Va_O159,-2.0,-1.889139025282888,-1.889139025282888,0.944569512641444,-2.1905056483979153,10.829377316774481
3191,Li3BO3,Li3BO3_Va_O1,5.2981,-2.5554420863095233,1.309903996244476,2.4966280991303913,4.798277232740048,1,59,Li3BO3_Va_O159,-2.0,-1.889139025282888,-1.889139025282888,0.944569512641444,-2.1905056483979153,10.829377316774481
3194,Li3BO3,Li3BO3_Va_O1,5.2981,-2.5554420863095233,1.309903996244476,2.4966280991303913,2.7126472848666383,2,59,Li3BO3_Va_O159,-2.0,-1.889139025282888,-1.889139025282888,0.944569512641444,-2.1905056483979153,10.829377316774481
3197,Li3BO3,Li3BO3_Va_O2,5.2981,-2.5554420863095233,1.2733264597235097,2.570793878591606,7.302907629999945,0,71,Li3BO3_Va_O271,-2.0,-1.8632241391426048,-1.892210451020812,0.9316120695713024,-2.1905056483979153,10.680821770370294
3200,Li3BO3,Li3BO3_Va_O2,5.2981,-2.5554420863095233,1.2733264597235097,2.570793878591606,4.81479731759157,1,71,Li3BO3_Va_O271,-2.0,-1.8632241391426048,-1.892210451020812,0.9316120695713024,-2.1905056483979153,10.680821770370294
3203,Li3BO3,Li3BO3_Va_O2,5.2981,-2.5554420863095233,1.2733264597235097,2.570793878591606,2.496783921988745,2,71,Li3BO3_Va_O271,-2.0,-1.8632241391426048,-1.892210451020812,0.9316120695713024,-2.1905056483979153,10.680821770370294
3206,Li3BO3,Li3BO3_Va_O3,5.2981,-2.5554420863095233,1.2988153919415162,2.5575295415649366,7.33130466000001,0,83,Li3BO3_Va_O383,-2.0,-1.7601800089589583,-1.8095559573705904,0.8800900044794792,-2.1905056483979153,10.090127411139406
3208,Li3BO3,Li3BO3_Va_O3,5.2981,-2.5554420863095233,1.2988153919415162,2.5575295415649366,4.790798412402802,1,83,Li3BO3_Va_O383,-2.0,-1.7601800089589583,-1.8095559573705904,0.8800900044794792,-2.1905056483979153,10.090127411139406
3223,Li3SbO4,Li3SbO4_Va_O1,3.2216999999999993,-2.2137175437499996,1.6490904880882649,2.4738478379801805,4.653637580000018,0,431,Li3SbO4_Va_O1431,-2.0,-2.069946656597089,-2.069946656597089,1.0349733282985445,-0.5208045461292565,11.231598165341207
3226,Li3SbO4,Li3SbO4_Va_O1,3.2216999999999993,-2.2137175437499996,1.6490904880882649,2.4738478379801805,2.4431457241635783,1,431,Li3SbO4_Va_O1431,-2.0,-2.069946656597089,-2.069946656597089,1.0349733282985445,-0.5208045461292565,11.231598165341207
3229,Li3SbO4,Li3SbO4_Va_O1,3.2216999999999993,-2.2137175437499996,1.6490904880882649,2.4738478379801805,0.1739739280794863,2,431,Li3SbO4_Va_O1431,-2.0,-2.069946656597089,-2.069946656597089,1.0349733282985445,-0.5208045461292565,11.231598165341207
3232,Li3SbO4,Li3SbO4_Va_O2,3.2216999999999993,-2.2137175437499996,1.249083567388437,1.5750525954426997,4.140833370000005,0,404,Li3SbO4_Va_O2404,-2.0,-1.962360119623072,-1.962360119623072,0.981180059811536,-0.5208045461292565,9.760123270095123
3235,Li3SbO4,Li3SbO4_Va_O2,3.2216999999999993,-2.2137175437499996,1.249083567388437,1.5750525954426997,2.9084295209751048,1,404,Li3SbO4_Va_O2404,-2.0,-1.962360119623072,-1.962360119623072,0.981180059811536,-0.5208045461292565,9.760123270095123
3238,Li3SbO4,Li3SbO4_Va_O2,3.2216999999999993,-2.2137175437499996,1.249083567388437,1.5750525954426997,1.648734639787071,2,404,Li3SbO4_Va_O2404,-2.0,-1.962360119623072,-1.962360119623072,0.981180059811536,-0.5208045461292565,9.760123270095123
3241,Li4Ca(BO3)2,Li4Ca(BO3)2_Va_O1,4.785500000000001,-2.778116286666667,1.340732269050028,2.4144545403935864,7.1585991099999635,0,53,Li4Ca(BO3)2_Va_O153,-2.0,-1.7881012686837454,-1.7881012686837454,0.8940506343418727,-2.1905056483979153,10.544874962914687
3244,Li4Ca(BO3)2,Li4Ca(BO3)2_Va_O1,4.785500000000001,-2.778116286666667,1.340732269050028,2.4144545403935864,4.5741670194596376,1,53,Li4Ca(BO3)2_Va_O153,-2.0,-1.7881012686837454,-1.7881012686837454,0.8940506343418727,-2.1905056483979153,10.544874962914687
3247,Li4Ca(BO3)2,Li4Ca(BO3)2_Va_O1,4.785500000000001,-2.778116286666667,1.340732269050028,2.4144545403935864,2.284837357469431,2,53,Li4Ca(BO3)2_Va_O153,-2.0,-1.7881012686837454,-1.7881012686837454,0.8940506343418727,-2.1905056483979153,10.544874962914687
3250,Li4Ca(BO3)2,Li4Ca(BO3)2_Va_O2,4.785500000000001,-2.778116286666667,1.3057261438173848,2.4188471647073015,7.029524329999967,0,65,Li4Ca(BO3)2_Va_O265,-2.0,-1.8521595024554625,-1.852159502455463,0.9260797512277312,-2.1905056483979153,10.617394397395376
3253,Li4Ca(BO3)2,Li4Ca(BO3)2_Va_O2,4.785500000000001,-2.778116286666667,1.3057261438173848,2.4188471647073015,4.637922226923833,1,65,Li4Ca(BO3)2_Va_O265,-2.0,-1.8521595024554625,-1.852159502455463,0.9260797512277312,-2.1905056483979153,10.617394397395376
3256,Li4Ca(BO3)2,Li4Ca(BO3)2_Va_O2,4.785500000000001,-2.778116286666667,1.3057261438173848,2.4188471647073015,2.3239600979535826,2,65,Li4Ca(BO3)2_Va_O265,-2.0,-1.8521595024554625,-1.852159502455463,0.9260797512277312,-2.1905056483979153,10.617394397395376
3259,Li4Ca(BO3)2,Li4Ca(BO3)2_Va_O3,4.785500000000001,-2.778116286666667,1.4787474353863248,2.4910067969527896,7.210172189999989,0,77,Li4Ca(BO3)2_Va_O377,-2.0,-1.9626880556246424,-1.9626880556246424,0.9813440278123212,-2.1905056483979153,11.89791999331836
3262,Li4Ca(BO3)2,Li4Ca(BO3)2_Va_O3,4.785500000000001,-2.778116286666667,1.4787474353863248,2.4910067969527896,4.526859448672085,1,77,Li4Ca(BO3)2_Va_O377,-2.0,-1.9626880556246424,-1.9626880556246424,0.9813440278123212,-2.1905056483979153,11.89791999331836
3265,Li4Ca(BO3)2,Li4Ca(BO3)2_Va_O3,4.785500000000001,-2.778116286666667,1.4787474353863248,2.4910067969527896,2.1665968232783475,2,77,Li4Ca(BO3)2_Va_O377,-2.0,-1.9626880556246424,-1.9626880556246424,0.9813440278123212,-2.1905056483979153,11.89791999331836
3268,Li4GeO4,Li4GeO4_Va_O1,4.0272,-2.2978871192592587,1.3868120812400504,1.7684252098683788,5.069368779999772,0,431,Li4GeO4_Va_O1431,-2.0,-1.858021755568179,-1.858021755568179,0.9290108777840896,-1.502819088333178,9.098470070721142
3271,Li4GeO4,Li4GeO4_Va_O1,4.0272,-2.2978871192592587,1.3868120812400504,1.7684252098683788,3.6959301576102,1,431,Li4GeO4_Va_O1431,-2.0,-1.858021755568179,-1.858021755568179,0.9290108777840896,-1.502819088333178,9.098470070721142
3274,Li4GeO4,Li4GeO4_Va_O1,4.0272,-2.2978871192592587,1.3868120812400504,1.7684252098683788,2.92780901543601,2,431,Li4GeO4_Va_O1431,-2.0,-1.858021755568179,-1.858021755568179,0.9290108777840896,-1.502819088333178,9.098470070721142
3277,Li4GeO4,Li4GeO4_Va_O2,4.0272,-2.2978871192592587,1.3543613916205228,1.7241108942456838,5.180380769999724,0,383,Li4GeO4_Va_O2383,-2.0,-1.7910255699451787,-1.7910255699451787,0.8955127849725893,-1.502819088333178,8.770399213683763
3280,Li4GeO4,Li4GeO4_Va_O2,4.0272,-2.2978871192592587,1.3543613916205228,1.7241108942456838,3.66248291868375,1,383,Li4GeO4_Va_O2383,-2.0,-1.7910255699451787,-1.7910255699451787,0.8955127849725893,-1.502819088333178,8.770399213683763
3283,Li4GeO4,Li4GeO4_Va_O2,4.0272,-2.2978871192592587,1.3543613916205228,1.7241108942456838,2.2439525617398486,2,383,Li4GeO4_Va_O2383,-2.0,-1.7910255699451787,-1.7910255699451787,0.8955127849725893,-1.502819088333178,8.770399213683763
3286,Li4PbO4,Li4PbO4_Va_O1,1.3723,-1.919143204259259,1.3569145958822,1.4253715182763198,3.022171759999887,0,287,Li4PbO4_Va_O1287,-2.0,-1.8597532852352752,-1.8597532852352752,0.9298766426176376,-0.2712847561180753,7.167083476949676
3289,Li4PbO4,Li4PbO4_Va_O1,1.3723,-1.919143204259259,1.3569145958822,1.4253715182763198,2.1865220996843924,1,287,Li4PbO4_Va_O1287,-2.0,-1.8597532852352752,-1.8597532852352752,0.9298766426176376,-0.2712847561180753,7.167083476949676
3292,Li4PbO4,Li4PbO4_Va_O1,1.3723,-1.919143204259259,1.3569145958822,1.4253715182763198,1.783163179577531,2,287,Li4PbO4_Va_O1287,-2.0,-1.8597532852352752,-1.8597532852352752,0.9298766426176376,-0.2712847561180753,7.167083476949676
3295,Li4PbO4,Li4PbO4_Va_O2,1.3723,-1.919143204259259,1.3792494173530598,1.3452002584233933,2.741590790000041,0,255,Li4PbO4_Va_O2255,-2.0,-1.8562206940580084,-1.8562206940580084,0.9281103470290042,-0.2712847561180753,7.1534696411476855
3298,Li4PbO4,Li4PbO4_Va_O2,1.3723,-1.919143204259259,1.3792494173530598,1.3452002584233933,2.0009381509209208,1,255,Li4PbO4_Va_O2255,-2.0,-1.8562206940580084,-1.8562206940580084,0.9281103470290042,-0.2712847561180753,7.1534696411476855
3301,Li4PbO4,Li4PbO4_Va_O2,1.3723,-1.919143204259259,1.3792494173530598,1.3452002584233933,1.1891615749453397,2,255,Li4PbO4_Va_O2255,-2.0,-1.8562206940580084,-1.8562206940580084,0.9281103470290042,-0.2712847561180753,7.1534696411476855
3331,Li5SbO5,Li5SbO5_Va_O1,3.0783000000000005,-2.198206253787879,1.2491845381245323,1.9795843312888224,5.002255129999989,0,131,Li5SbO5_Va_O1131,-2.0,-2.038852884227143,-2.038852884227143,1.0194264421135717,-0.5208045461292565,10.140572711734565
3334,Li5SbO5,Li5SbO5_Va_O1,3.0783000000000005,-2.198206253787879,1.2491845381245323,1.9795843312888224,3.3423336575651836,1,131,Li5SbO5_Va_O1131,-2.0,-2.038852884227143,-2.038852884227143,1.0194264421135717,-0.5208045461292565,10.140572711734565
3337,Li5SbO5,Li5SbO5_Va_O1,3.0783000000000005,-2.198206253787879,1.2491845381245323,1.9795843312888224,1.816595168966224,2,131,Li5SbO5_Va_O1131,-2.0,-2.038852884227143,-2.038852884227143,1.0194264421135717,-0.5208045461292565,10.140572711734565
3340,Li5SbO5,Li5SbO5_Va_O2,3.0783000000000005,-2.198206253787879,1.6322392020531835,2.5550155181691467,4.8999983500000415,0,95,Li5SbO5_Va_O295,-2.0,-2.1997813447999204,-2.19978134479992,1.0998906723999602,-0.5208045461292565,11.936085424067901
3343,Li5SbO5,Li5SbO5_Va_O2,3.0783000000000005,-2.198206253787879,1.6322392020531835,2.5550155181691467,2.663135769683146,1,95,Li5SbO5_Va_O295,-2.0,-2.1997813447999204,-2.19978134479992,1.0998906723999602,-0.5208045461292565,11.936085424067901
3346,Li5SbO5,Li5SbO5_Va_O2,3.0783000000000005,-2.198206253787879,1.6322392020531835,2.5550155181691467,0.6411534274606316,2,95,Li5SbO5_Va_O295,-2.0,-2.1997813447999204,-2.19978134479992,1.0998906723999602,-0.5208045461292565,11.936085424067901
3349,Li5SbO5,Li5SbO5_Va_O3,3.0783000000000005,-2.198206253787879,1.2755332551970529,1.7738628893716877,4.800263109999955,0,119,Li5SbO5_Va_O3119,-2.0,-1.8697380124181575,-1.8697380124181575,0.9348690062090788,-0.5208045461292565,9.299451869970271
3352,Li5SbO5,Li5SbO5_Va_O3,3.0783000000000005,-2.198206253787879,1.2755332551970529,1.7738628893716877,3.109740084353767,1,119,Li5SbO5_Va_O3119,-2.0,-1.8697380124181575,-1.8697380124181575,0.9348690062090788,-0.5208045461292565,9.299451869970271
3355,Li5SbO5,Li5SbO5_Va_O3,3.0783000000000005,-2.198206253787879,1.2755332551970529,1.7738628893716877,1.525852525081684,2,119,Li5SbO5_Va_O3119,-2.0,-1.8697380124181575,-1.8697380124181575,0.9348690062090788,-0.5208045461292565,9.299451869970271
3358,Li8SnO6,Li8SnO6_Va_O1,4.0517,-2.1430056621111113,1.1728702208159925,1.3628324117250872,5.918599580000214,0,404,Li8SnO6_Va_O1404,-2.0,-1.7392481915030928,-1.7392481915030928,0.8696240957515464,-1.538575818365933,9.94009149345104
3361,Li8SnO6,Li8SnO6_Va_O1,4.0517,-2.1430056621111113,1.1728702208159925,1.3628324117250872,4.167119142955207,1,404,Li8SnO6_Va_O1404,-2.0,-1.7392481915030928,-1.7392481915030928,0.8696240957515464,-1.538575818365933,9.94009149345104
3364,Li8SnO6,Li8SnO6_Va_O1,4.0517,-2.1430056621111113,1.1728702208159925,1.3628324117250872,2.6379995227395816,2,404,Li8SnO6_Va_O1404,-2.0,-1.7392481915030928,-1.7392481915030928,0.8696240957515464,-1.538575818365933,9.94009149345104