,formula,full_name,band_gap,formation_energy,nn_ave_eleneg,o2p_center_from_vbm,vacancy_formation_energy,charge,vacancy_index,merge_on,valence,bv_sum_Crystal,bv_sum_nn,BVS_ratio,vr_max,Eb_sum
3867,Na2MgGeO4,Na2MgGeO4_Va_O4,3.2445999999999997,-2.382190906012931,1.4981705929595217,1.5944566503797444,5.111311409999994,0,287,Na2MgGeO4_Va_O4287,-2.0,-1.8635317429716132,-1.8635317429716132,0.9317658714858066,-1.502819088333178,7.241276170915706
3870,Na2MgGeO4,Na2MgGeO4_Va_O4,3.2445999999999997,-2.382190906012931,1.4981705929595217,1.5944566503797444,3.931013029966227,1,287,Na2MgGeO4_Va_O4287,-2.0,-1.8635317429716132,-1.8635317429716132,0.9317658714858066,-1.502819088333178,7.241276170915706
3873,Na2MgGeO4,Na2MgGeO4_Va_O4,3.2445999999999997,-2.382190906012931,1.4981705929595217,1.5944566503797444,3.2039740292326324,2,287,Na2MgGeO4_Va_O4287,-2.0,-1.8635317429716132,-1.8635317429716132,0.9317658714858066,-1.502819088333178,7.241276170915706
3876,Na2MgSiO4,Na2MgSiO4_Va_O1,3.8845,-2.807341548512931,1.5434786900483108,1.9345832075887304,6.6681857400000215,0,179,Na2MgSiO4_Va_O1179,-2.0,-2.136268011069881,-2.136268011069881,1.0681340055349404,-2.158566424325179,9.425156920945103
3879,Na2MgSiO4,Na2MgSiO4_Va_O1,3.8845,-2.807341548512931,1.5434786900483108,1.9345832075887304,5.096893673014891,1,179,Na2MgSiO4_Va_O1179,-2.0,-2.136268011069881,-2.136268011069881,1.0681340055349404,-2.158566424325179,9.425156920945103
3882,Na2MgSiO4,Na2MgSiO4_Va_O1,3.8845,-2.807341548512931,1.5434786900483108,1.9345832075887304,3.796400979236109,2,179,Na2MgSiO4_Va_O1179,-2.0,-2.136268011069881,-2.136268011069881,1.0681340055349404,-2.158566424325179,9.425156920945103
3885,Na2MgSiO4,Na2MgSiO4_Va_O2,3.8845,-2.807341548512931,1.509652048946425,1.9706985650732225,6.732014080000122,0,215,Na2MgSiO4_Va_O2215,-2.0,-2.067541456422977,-2.067541456422977,1.0337707282114883,-2.158566424325179,9.121937213105836
3888,Na2MgSiO4,Na2MgSiO4_Va_O2,3.8845,-2.807341548512931,1.509652048946425,1.9706985650732225,5.112463167882508,1,215,Na2MgSiO4_Va_O2215,-2.0,-2.067541456422977,-2.067541456422977,1.0337707282114883,-2.158566424325179,9.121937213105836
3891,Na2MgSiO4,Na2MgSiO4_Va_O2,3.8845,-2.807341548512931,1.509652048946425,1.9706985650732225,4.020785051892004,2,215,Na2MgSiO4_Va_O2215,-2.0,-2.067541456422977,-2.067541456422977,1.0337707282114883,-2.158566424325179,9.121937213105836
3894,Na2MgSiO4,Na2MgSiO4_Va_O3,3.8845,-2.807341548512931,1.5349604349221158,1.924140824990511,6.626281169999979,0,287,Na2MgSiO4_Va_O3287,-2.0,-2.2614276948272676,-2.2614276948272676,1.1307138474136338,-2.158566424325179,9.977358074300597
3897,Na2MgSiO4,Na2MgSiO4_Va_O3,3.8845,-2.807341548512931,1.5349604349221158,1.924140824990511,5.151044594503962,1,287,Na2MgSiO4_Va_O3287,-2.0,-2.2614276948272676,-2.2614276948272676,1.1307138474136338,-2.158566424325179,9.977358074300597
3900,Na2MgSiO4,Na2MgSiO4_Va_O3,3.8845,-2.807341548512931,1.5349604349221158,1.924140824990511,3.622407778496024,2,287,Na2MgSiO4_Va_O3287,-2.0,-2.2614276948272676,-2.2614276948272676,1.1307138474136338,-2.158566424325179,9.977358074300597
3903,Na2MgSiO4,Na2MgSiO4_Va_O4,3.8845,-2.807341548512931,1.5091475872257534,1.9904116681323507,6.73465805000013,0,269,Na2MgSiO4_Va_O4269,-2.0,-2.1172345514197333,-2.143613541295376,1.0586172757098666,-2.158566424325179,9.341181809666217
3906,Na2MgSiO4,Na2MgSiO4_Va_O4,3.8845,-2.807341548512931,1.5091475872257534,1.9904116681323507,5.147661759141305,1,269,Na2MgSiO4_Va_O4269,-2.0,-2.1172345514197333,-2.143613541295376,1.0586172757098666,-2.158566424325179,9.341181809666217
3909,Na2MgSiO4,Na2MgSiO4_Va_O4,3.8845,-2.807341548512931,1.5091475872257534,1.9904116681323507,4.21672837394792,2,269,Na2MgSiO4_Va_O4269,-2.0,-2.1172345514197333,-2.143613541295376,1.0586172757098666,-2.158566424325179,9.341181809666217
3912,Na2PbO3,Na2PbO3_Va_O1,1.3852000000000002,-1.685241230933908,1.5578671564280668,1.287216116113615,3.5118434600000317,0,63,Na2PbO3_Va_O163,-2.0,-1.9656914173480655,-1.9656914173480653,0.9828457086740328,-0.2712847561180753,7.786531061467399
3914,Na2PbO3,Na2PbO3_Va_O1,1.3852000000000002,-1.685241230933908,1.5578671564280668,1.287216116113615,1.0298509218087002,2,63,Na2PbO3_Va_O163,-2.0,-1.9656914173480655,-1.9656914173480653,0.9828457086740328,-0.2712847561180753,7.786531061467399
3916,Na2PbO3,Na2PbO3_Va_O2,1.3852000000000002,-1.685241230933908,1.5448264821383595,1.3244149362231266,3.720592640000015,0,79,Na2PbO3_Va_O279,-2.0,-1.997749210707904,-1.997749210707904,0.998874605353952,-0.2712847561180753,7.913518950591548
3918,Na2PbO3,Na2PbO3_Va_O2,1.3852000000000002,-1.685241230933908,1.5448264821383595,1.3244149362231266,1.2517428384537448,2,79,Na2PbO3_Va_O279,-2.0,-1.997749210707904,-1.997749210707904,0.998874605353952,-0.2712847561180753,7.913518950591548
3920,Na2PbO3,Na2PbO3_Va_O3,1.3852000000000002,-1.685241230933908,1.5622508021994184,1.3005316308390644,3.507689330000014,0,95,Na2PbO3_Va_O395,-2.0,-1.96795325462928,-1.96795325462928,0.98397662731464,-0.2712847561180753,7.795490690680168
3922,Na2PbO3,Na2PbO3_Va_O3,1.3852000000000002,-1.685241230933908,1.5622508021994184,1.3005316308390644,1.0067768566956246,2,95,Na2PbO3_Va_O395,-2.0,-1.96795325462928,-1.96795325462928,0.98397662731464,-0.2712847561180753,7.795490690680168
3924,Na2Sb4O7,Na2Sb4O7_Va_O1,2.9387999999999996,-1.8557798171618032,2.051127537584742,2.788231272117096,4.5623656500000696,0,299,Na2Sb4O7_Va_O1299,-2.0,-2.1851796464362523,-2.1851796464362523,1.092589823218126,-1.2369755737418262,10.040175603138348
3927,Na2Sb4O7,Na2Sb4O7_Va_O1,2.9387999999999996,-1.8557798171618032,2.051127537584742,2.788231272117096,2.1786372697280907,1,299,Na2Sb4O7_Va_O1299,-2.0,-2.1851796464362523,-2.1851796464362523,1.092589823218126,-1.2369755737418262,10.040175603138348
3930,Na2Sb4O7,Na2Sb4O7_Va_O1,2.9387999999999996,-1.8557798171618032,2.051127537584742,2.788231272117096,-0.6552669249690801,2,299,Na2Sb4O7_Va_O1299,-2.0,-2.1851796464362523,-2.1851796464362523,1.092589823218126,-1.2369755737418262,10.040175603138348
3933,Na2Sb4O7,Na2Sb4O7_Va_O2,2.9387999999999996,-1.8557798171618032,2.392913981072047,2.92493481971893,4.564208150000136,0,251,Na2Sb4O7_Va_O2251,-2.0,-1.8646449089225396,-1.8646449089225396,0.9323224544612698,-1.2369755737418262,9.659724631226297
3936,Na2Sb4O7,Na2Sb4O7_Va_O2,2.9387999999999996,-1.8557798171618032,2.392913981072047,2.92493481971893,1.9355770216980128,1,251,Na2Sb4O7_Va_O2251,-2.0,-1.8646449089225396,-1.8646449089225396,0.9323224544612698,-1.2369755737418262,9.659724631226297
3939,Na2Sb4O7,Na2Sb4O7_Va_O2,2.9387999999999996,-1.8557798171618032,2.392913981072047,2.92493481971893,-1.2411295924441146,2,251,Na2Sb4O7_Va_O2251,-2.0,-1.8646449089225396,-1.8646449089225396,0.9323224544612698,-1.2369755737418262,9.659724631226297
3942,Na2Sb4O7,Na2Sb4O7_Va_O3,2.9387999999999996,-1.8557798171618032,2.091654765961163,3.3025776457711866,4.198386270000023,0,215,Na2Sb4O7_Va_O3215,-2.0,-2.3724789358163125,-2.3724789358163134,1.1862394679081565,-1.2369755737418262,10.900753706538552
3943,Na2Sb4O7,Na2Sb4O7_Va_O4,2.9387999999999996,-1.8557798171618032,1.9446082369744648,2.7746603316008605,4.772936640000021,0,311,Na2Sb4O7_Va_O4311,-2.0,-2.0082604409562266,-2.0082604409562266,1.0041302204781133,-1.2369755737418262,9.227290541956268
3946,Na2Sb4O7,Na2Sb4O7_Va_O4,2.9387999999999996,-1.8557798171618032,1.9446082369744648,2.7746603316008605,2.104163990177173,1,311,Na2Sb4O7_Va_O4311,-2.0,-2.0082604409562266,-2.0082604409562266,1.0041302204781133,-1.2369755737418262,9.227290541956268
3949,Na2Sb4O7,Na2Sb4O7_Va_O4,2.9387999999999996,-1.8557798171618032,1.9446082369744648,2.7746603316008605,-0.0017076161924296,2,311,Na2Sb4O7_Va_O4311,-2.0,-2.0082604409562266,-2.0082604409562266,1.0041302204781133,-1.2369755737418262,9.227290541956268
3952,Na2SiO3,Na2SiO3_Va_O1,3.9955000000000007,-2.6992391030172413,1.855558496948309,3.681385195710336,6.465966139999987,0,63,Na2SiO3_Va_O163,-2.0,-2.447368672574762,-2.447368672574762,1.223684336287381,-2.158566424325179,14.583207481928365
3954,Na2SiO3,Na2SiO3_Va_O1,3.9955000000000007,-2.6992391030172413,1.855558496948309,3.681385195710336,4.4648771823746785,1,63,Na2SiO3_Va_O163,-2.0,-2.447368672574762,-2.447368672574762,1.223684336287381,-2.158566424325179,14.583207481928365
3956,Na2SiO3,Na2SiO3_Va_O2,3.9955000000000007,-2.6992391030172413,1.388390723489074,1.792391604112825,6.397889370000039,0,95,Na2SiO3_Va_O295,-2.0,-2.1361180705480813,-2.1361180705480813,1.068059035274041,-2.158566424325179,10.020324202566762
3959,Na2SiO3,Na2SiO3_Va_O2,3.9955000000000007,-2.6992391030172413,1.388390723489074,1.792391604112825,5.17305038118903,1,95,Na2SiO3_Va_O295,-2.0,-2.1361180705480813,-2.1361180705480813,1.068059035274041,-2.158566424325179,10.020324202566762
3962,Na2SiO3,Na2SiO3_Va_O2,3.9955000000000007,-2.6992391030172413,1.388390723489074,1.792391604112825,3.409463202830233,2,95,Na2SiO3_Va_O295,-2.0,-2.1361180705480813,-2.1361180705480813,1.068059035274041,-2.158566424325179,10.020324202566762
3965,Na2SnO3,Na2SnO3_Va_O1,2.7495000000000003,-2.072807835933908,1.4911487521056277,1.4582995518409103,5.344908069999983,0,95,Na2SnO3_Va_O195,-2.0,-1.9540182581205567,-1.9540182581205563,0.9770091290602784,-1.538575818365933,9.124846635589861
3967,Na2SnO3,Na2SnO3_Va_O1,2.7495000000000003,-2.072807835933908,1.4911487521056277,1.4582995518409103,3.558155047793867,1,95,Na2SnO3_Va_O195,-2.0,-1.9540182581205567,-1.9540182581205563,0.9770091290602784,-1.538575818365933,9.124846635589861
3969,Na2SnO3,Na2SnO3_Va_O2,2.7495000000000003,-2.072807835933908,1.5086257672724364,1.4058614474089528,5.161102130000026,0,91,Na2SnO3_Va_O291,-2.0,-1.91042415948498,-1.91042415948498,0.95521207974249,-1.538575818365933,8.92127153458286
3971,Na2SnO3,Na2SnO3_Va_O2,2.7495000000000003,-2.072807835933908,1.5086257672724364,1.4058614474089528,3.395580088330406,1,91,Na2SnO3_Va_O291,-2.0,-1.91042415948498,-1.91042415948498,0.95521207974249,-1.538575818365933,8.92127153458286
3973,Na2SnO3,Na2SnO3_Va_O3,2.7495000000000003,-2.072807835933908,1.5036822579574365,1.392117409965449,5.1803528900000035,0,83,Na2SnO3_Va_O383,-2.0,-1.9085855947849888,-1.9085855947849888,0.9542927973924944,-1.538575818365933,8.912685831328908
3975,Na2SnO3,Na2SnO3_Va_O3,2.7495000000000003,-2.072807835933908,1.5036822579574365,1.392117409965449,3.4023651731331146,1,83,Na2SnO3_Va_O383,-2.0,-1.9085855947849888,-1.9085855947849888,0.9542927973924944,-1.538575818365933,8.912685831328908
3977,Na3AsO4,Na3AsO4_Va_O1,3.3761,-2.0528031474568964,1.5169268366869164,1.8565538228334355,3.9640783899999494,0,111,Na3AsO4_Va_O1111,-2.0,-2.165721114384082,-2.165721114384082,1.082860557192041,-0.6589084382122885,6.7881220800397415
3980,Na3AsO4,Na3AsO4_Va_O1,3.3761,-2.0528031474568964,1.5169268366869164,1.8565538228334355,3.030048468346367,1,111,Na3AsO4_Va_O1111,-2.0,-2.165721114384082,-2.165721114384082,1.082860557192041,-0.6589084382122885,6.7881220800397415
3983,Na3AsO4,Na3AsO4_Va_O1,3.3761,-2.0528031474568964,1.5169268366869164,1.8565538228334355,3.3446400404950327,2,111,Na3AsO4_Va_O1111,-2.0,-2.165721114384082,-2.165721114384082,1.082860557192041,-0.6589084382122885,6.7881220800397415
3986,Na3AsO4,Na3AsO4_Va_O2,3.3761,-2.0528031474568964,1.5367031765163404,1.7974362153886294,3.8331289499999546,0,103,Na3AsO4_Va_O2103,-2.0,-2.317425310842549,-2.317425310842549,1.1587126554212746,-0.6589084382122885,7.2636157152889265
3989,Na3AsO4,Na3AsO4_Va_O2,3.3761,-2.0528031474568964,1.5367031765163404,1.7974362153886294,3.1197909095144567,1,103,Na3AsO4_Va_O2103,-2.0,-2.317425310842549,-2.317425310842549,1.1587126554212746,-0.6589084382122885,7.2636157152889265
3992,Na3AsO4,Na3AsO4_Va_O2,3.3761,-2.0528031474568964,1.5367031765163404,1.7974362153886294,2.676930673719837,2,103,Na3AsO4_Va_O2103,-2.0,-2.317425310842549,-2.317425310842549,1.1587126554212746,-0.6589084382122885,7.2636157152889265
3995,Na3AsO4,Na3AsO4_Va_O3,3.3761,-2.0528031474568964,1.506927484517736,1.8441806235112188,3.98508406999998,0,127,Na3AsO4_Va_O3127,-2.0,-2.0942582991689744,-2.0942582991689744,1.0471291495844872,-0.6589084382122885,6.564132799683378
3997,Na3AsO4,Na3AsO4_Va_O3,3.3761,-2.0528031474568964,1.506927484517736,1.8441806235112188,2.9978316773116926,1,127,Na3AsO4_Va_O3127,-2.0,-2.0942582991689744,-2.0942582991689744,1.0471291495844872,-0.6589084382122885,6.564132799683378
3999,Na3BO3,Na3BO3_Va_O1,3.1534999999999997,-2.267062791974549,1.2791005784099043,2.5156331496583024,6.837499409999859,0,323,Na3BO3_Va_O1323,-2.0,-1.9527028975441976,-1.9527028975441976,0.9763514487720988,-2.158566424325179,10.878130064201155
4002,Na3BO3,Na3BO3_Va_O1,3.1534999999999997,-2.267062791974549,1.2791005784099043,2.5156331496583024,4.728196967019841,1,323,Na3BO3_Va_O1323,-2.0,-1.9527028975441976,-1.9527028975441976,0.9763514487720988,-2.158566424325179,10.878130064201155
4005,Na3BO3,Na3BO3_Va_O1,3.1534999999999997,-2.267062791974549,1.2791005784099043,2.5156331496583024,3.2528970144916207,2,323,Na3BO3_Va_O1323,-2.0,-1.9527028975441976,-1.9527028975441976,0.9763514487720988,-2.158566424325179,10.878130064201155
4008,Na3BO3,Na3BO3_Va_O2,3.1534999999999997,-2.267062791974549,1.286527059552988,2.540594051134821,6.852747300000042,0,335,Na3BO3_Va_O2335,-2.0,-1.981683725757809,-1.9816837257578093,0.9908418628789044,-2.158566424325179,11.039576651427717
4011,Na3BO3,Na3BO3_Va_O2,3.1534999999999997,-2.267062791974549,1.286527059552988,2.540594051134821,4.82580436655018,1,335,Na3BO3_Va_O2335,-2.0,-1.981683725757809,-1.9816837257578093,0.9908418628789044,-2.158566424325179,11.039576651427717
4014,Na3BO3,Na3BO3_Va_O2,3.1534999999999997,-2.267062791974549,1.286527059552988,2.540594051134821,3.4408221529910175,2,335,Na3BO3_Va_O2335,-2.0,-1.981683725757809,-1.9816837257578093,0.9908418628789044,-2.158566424325179,11.039576651427717
4017,Na3BO3,Na3BO3_Va_O3,3.1534999999999997,-2.267062791974549,1.275167480053936,2.5076310503212467,6.787945609999847,0,287,Na3BO3_Va_O3287,-2.0,-0.9447405549876916,-1.8034549626929195,0.4723702774938457,-2.158566424325179,2.5680329284580066
4020,Na3BO3,Na3BO3_Va_O3,3.1534999999999997,-2.267062791974549,1.275167480053936,2.5076310503212467,4.694706170474214,1,287,Na3BO3_Va_O3287,-2.0,-0.9447405549876916,-1.8034549626929195,0.4723702774938457,-2.158566424325179,2.5680329284580066
4023,Na3BO3,Na3BO3_Va_O3,3.1534999999999997,-2.267062791974549,1.275167480053936,2.5076310503212467,3.1426176510086834,2,287,Na3BO3_Va_O3287,-2.0,-0.9447405549876916,-1.8034549626929195,0.4723702774938457,-2.158566424325179,2.5680329284580066
4026,Na3BeAl(SiO4)2,Na3BeAl(SiO4)2_Va_O1,4.4380999999999995,-2.980470083643678,1.8471761549408487,2.790443129075856,6.654092090000072,0,199,Na3BeAl(SiO4)2_Va_O1199,-2.0,-2.230049028550861,-2.2300490285508614,1.1150245142754305,-2.158566424325179,10.884913063270364
4029,Na3BeAl(SiO4)2,Na3BeAl(SiO4)2_Va_O1,4.4380999999999995,-2.980470083643678,1.8471761549408487,2.790443129075856,5.0003888284266065,1,199,Na3BeAl(SiO4)2_Va_O1199,-2.0,-2.230049028550861,-2.2300490285508614,1.1150245142754305,-2.158566424325179,10.884913063270364
4032,Na3BeAl(SiO4)2,Na3BeAl(SiO4)2_Va_O1,4.4380999999999995,-2.980470083643678,1.8471761549408487,2.790443129075856,2.392073602688274,2,199,Na3BeAl(SiO4)2_Va_O1199,-2.0,-2.230049028550861,-2.2300490285508614,1.1150245142754305,-2.158566424325179,10.884913063270364
4035,Na3BeAl(SiO4)2,Na3BeAl(SiO4)2_Va_O2,4.4380999999999995,-2.980470083643678,1.7295615398358943,2.170270650780994,6.733661070000048,0,207,Na3BeAl(SiO4)2_Va_O2207,-2.0,-2.187745712223933,-2.1877457122239337,1.0938728561119666,-2.158566424325179,11.112382882888564
4038,Na3BeAl(SiO4)2,Na3BeAl(SiO4)2_Va_O2,4.4380999999999995,-2.980470083643678,1.7295615398358943,2.170270650780994,4.746174009947638,1,207,Na3BeAl(SiO4)2_Va_O2207,-2.0,-2.187745712223933,-2.1877457122239337,1.0938728561119666,-2.158566424325179,11.112382882888564
4041,Na3BeAl(SiO4)2,Na3BeAl(SiO4)2_Va_O2,4.4380999999999995,-2.980470083643678,1.7295615398358943,2.170270650780994,3.50409701106223,2,207,Na3BeAl(SiO4)2_Va_O2207,-2.0,-2.187745712223933,-2.1877457122239337,1.0938728561119666,-2.158566424325179,11.112382882888564
4044,Na3BeAl(SiO4)2,Na3BeAl(SiO4)2_Va_O3,4.4380999999999995,-2.980470083643678,1.7437640896550468,2.8485747131758306,6.707510999999963,0,231,Na3BeAl(SiO4)2_Va_O3231,-2.0,-2.3713859773737376,-2.3713859773737376,1.1856929886868688,-2.158566424325179,11.574781483591428
4047,Na3BeAl(SiO4)2,Na3BeAl(SiO4)2_Va_O3,4.4380999999999995,-2.980470083643678,1.7437640896550468,2.8485747131758306,5.0223060689854755,1,231,Na3BeAl(SiO4)2_Va_O3231,-2.0,-2.3713859773737376,-2.3713859773737376,1.1856929886868688,-2.158566424325179,11.574781483591428
4050,Na3BeAl(SiO4)2,Na3BeAl(SiO4)2_Va_O3,4.4380999999999995,-2.980470083643678,1.7437640896550468,2.8485747131758306,2.2259985145807266,2,231,Na3BeAl(SiO4)2_Va_O3231,-2.0,-2.3713859773737376,-2.3713859773737376,1.1856929886868688,-2.158566424325179,11.574781483591428
4053,Na3BeAl(SiO4)2,Na3BeAl(SiO4)2_Va_O4,4.4380999999999995,-2.980470083643678,1.6783995270293637,2.230243770555039,6.7080475399999475,0,239,Na3BeAl(SiO4)2_Va_O4239,-2.0,-2.1097310966769616,-2.1097310966769616,1.0548655483384808,-2.158566424325179,10.716117323516018
4056,Na3BeAl(SiO4)2,Na3BeAl(SiO4)2_Va_O4,4.4380999999999995,-2.980470083643678,1.6783995270293637,2.230243770555039,4.604589477799531,1,239,Na3BeAl(SiO4)2_Va_O4239,-2.0,-2.1097310966769616,-2.1097310966769616,1.0548655483384808,-2.158566424325179,10.716117323516018
4059,Na3BeAl(SiO4)2,Na3BeAl(SiO4)2_Va_O4,4.4380999999999995,-2.980470083643678,1.6783995270293637,2.230243770555039,3.4465030345101577,2,239,Na3BeAl(SiO4)2_Va_O4239,-2.0,-2.1097310966769616,-2.1097310966769616,1.0548655483384808,-2.158566424325179,10.716117323516018
4062,Na3BiO3,Na3BiO3_Va_O1,2.9553000000000003,-1.7198474360221674,1.202518516146676,1.4271764364664796,4.460586569999927,0,447,Na3BiO3_Va_O1447,-2.0,-1.9803248180117192,-1.9803248180117192,0.9901624090058596,-0.9858147743813158,7.276012294480812
4065,Na3BiO3,Na3BiO3_Va_O1,2.9553000000000003,-1.7198474360221674,1.202518516146676,1.4271764364664796,2.877220856159844,1,447,Na3BiO3_Va_O1447,-2.0,-1.9803248180117192,-1.9803248180117192,0.9901624090058596,-0.9858147743813158,7.276012294480812
4068,Na3BiO3,Na3BiO3_Va_O1,2.9553000000000003,-1.7198474360221674,1.202518516146676,1.4271764364664796,2.4970366582693937,2,447,Na3BiO3_Va_O1447,-2.0,-1.9803248180117192,-1.9803248180117192,0.9901624090058596,-0.9858147743813158,7.276012294480812
4094,Na3SbO3,Na3SbO3_Va_O1,3.0228999999999995,-1.8600301767364535,1.233599171476406,2.1216840746030035,5.128975879999766,0,447,Na3SbO3_Va_O1447,-2.0,-1.96665201557588,-1.96665201557588,0.98332600778794,-1.2369755737418262,9.006059128057927
4097,Na3SbO3,Na3SbO3_Va_O1,3.0228999999999995,-1.8600301767364535,1.233599171476406,2.1216840746030035,3.2056987946041007,1,447,Na3SbO3_Va_O1447,-2.0,-1.96665201557588,-1.96665201557588,0.98332600778794,-1.2369755737418262,9.006059128057927
4100,Na3SbO3,Na3SbO3_Va_O1,3.0228999999999995,-1.8600301767364535,1.233599171476406,2.1216840746030035,2.36426531564881,2,447,Na3SbO3_Va_O1447,-2.0,-1.96665201557588,-1.96665201557588,0.98332600778794,-1.2369755737418262,9.006059128057927
4103,Na3SbO4,Na3SbO4_Va_O1,2.3398999999999996,-2.005708985581896,1.3280034752738212,1.3499101437245435,4.299767370000049,0,323,Na3SbO4_Va_O1323,-2.0,-2.1664599332772863,-2.166459933277286,1.0832299666386431,-0.5208045461292565,8.792538268309379
4106,Na3SbO4,Na3SbO4_Va_O1,2.3398999999999996,-2.005708985581896,1.3280034752738212,1.3499101437245435,3.4103527758693684,1,323,Na3SbO4_Va_O1323,-2.0,-2.1664599332772863,-2.166459933277286,1.0832299666386431,-0.5208045461292565,8.792538268309379
4109,Na3SbO4,Na3SbO4_Va_O1,2.3398999999999996,-2.005708985581896,1.3280034752738212,1.3499101437245435,2.6863017281280945,2,323,Na3SbO4_Va_O1323,-2.0,-2.1664599332772863,-2.166459933277286,1.0832299666386431,-0.5208045461292565,8.792538268309379