,formula,full_name,band_gap,formation_energy,nn_ave_eleneg,o2p_center_from_vbm,vacancy_formation_energy,charge,vacancy_index,merge_on,valence,bv_sum_Crystal,bv_sum_nn,BVS_ratio,vr_max,Eb_sum
2592,K2PbO2,K2PbO2_Va_O1,1.8729,-1.5445868726999992,1.5280700757987018,1.898156144499617,4.168767949999969,0,287,K2PbO2_Va_O1287,-2.0,-1.7456702908529778,-1.7456702908529778,0.8728351454264889,-1.1369603723458594,6.605713899939012
2595,K2PbO2,K2PbO2_Va_O1,1.8729,-1.5445868726999992,1.5280700757987018,1.898156144499617,2.5819897758700217,1,287,K2PbO2_Va_O1287,-2.0,-1.7456702908529778,-1.7456702908529778,0.8728351454264889,-1.1369603723458594,6.605713899939012
2598,K2PbO2,K2PbO2_Va_O1,1.8729,-1.5445868726999992,1.5280700757987018,1.898156144499617,1.5914097511947336,2,287,K2PbO2_Va_O1287,-2.0,-1.7456702908529778,-1.7456702908529778,0.8728351454264889,-1.1369603723458594,6.605713899939012
2601,K2PbO2,K2PbO2_Va_O2,1.8729,-1.5445868726999992,1.22109028649284,1.2729591666383462,4.472171290000128,0,323,K2PbO2_Va_O2323,-2.0,-1.591905565503298,-1.591905565503298,0.7959527827516489,-1.1369603723458594,5.4691263884763766
2604,K2PbO2,K2PbO2_Va_O2,1.8729,-1.5445868726999992,1.22109028649284,1.2729591666383462,3.0487539594634914,1,323,K2PbO2_Va_O2323,-2.0,-1.591905565503298,-1.591905565503298,0.7959527827516489,-1.1369603723458594,5.4691263884763766
2607,K2PbO2,K2PbO2_Va_O2,1.8729,-1.5445868726999992,1.22109028649284,1.2729591666383462,2.79862860117135,2,323,K2PbO2_Va_O2323,-2.0,-1.591905565503298,-1.591905565503298,0.7959527827516489,-1.1369603723458594,5.4691263884763766
2610,K2PbO2,K2PbO2_Va_O3,1.8729,-1.5445868726999992,1.241948254313536,1.1819441292291633,3.03423931882561,1,305,K2PbO2_Va_O3305,-2.0,-1.676406190943822,-1.676406190943822,0.8382030954719111,-1.1369603723458594,5.759435443519738
2612,K2PbO2,K2PbO2_Va_O3,1.8729,-1.5445868726999992,1.241948254313536,1.1819441292291633,2.771856004318714,2,305,K2PbO2_Va_O3305,-2.0,-1.676406190943822,-1.676406190943822,0.8382030954719111,-1.1369603723458594,5.759435443519738
2614,K2PbO2,K2PbO2_Va_O4,1.8729,-1.5445868726999992,1.6398893590728936,1.866650441134311,4.092874670000024,0,359,K2PbO2_Va_O4359,-2.0,-1.7529258065139022,-1.7529258065139024,0.8764629032569511,-1.1369603723458594,5.731255684857695
2617,K2PbO2,K2PbO2_Va_O4,1.8729,-1.5445868726999992,1.6398893590728936,1.866650441134311,2.608380711495526,1,359,K2PbO2_Va_O4359,-2.0,-1.7529258065139022,-1.7529258065139024,0.8764629032569511,-1.1369603723458594,5.731255684857695
2620,K2PbO2,K2PbO2_Va_O4,1.8729,-1.5445868726999992,1.6398893590728936,1.866650441134311,1.816501143337488,2,359,K2PbO2_Va_O4359,-2.0,-1.7529258065139022,-1.7529258065139024,0.8764629032569511,-1.1369603723458594,5.731255684857695
2623,K2PbO3,K2PbO3_Va_O1,1.2155999999999998,-1.595229126,1.701509820749311,1.1775017668774457,0.7618750202042581,2,95,K2PbO3_Va_O195,-2.0,-1.8519219845690031,-1.8519219845690031,0.9259609922845016,-0.2712847561180753,6.921078788842388
2624,K2Sn2O3,K2Sn2O3_Va_O1,1.1128,-1.7484540158571429,1.55968193550599,3.653780673303535,4.648751720000186,0,223,K2Sn2O3_Va_O1223,-2.0,-1.7440241218199808,-1.7440241218199803,0.8720120609099904,-1.454625234810769,7.360458989559054
2625,K2SnO3,K2SnO3_Va_O1,2.1971,-1.960791325583334,1.6419808485156369,1.9660257004440127,4.479691010000247,0,359,K2SnO3_Va_O1359,-2.0,-1.7286558336911757,-1.6746277475944926,0.8643279168455877,-1.538575818365933,7.685274288713003
2628,K2SnO3,K2SnO3_Va_O1,2.1971,-1.960791325583334,1.6419808485156369,1.9660257004440127,2.7083163234545067,1,359,K2SnO3_Va_O1359,-2.0,-1.7286558336911757,-1.6746277475944926,0.8643279168455877,-1.538575818365933,7.685274288713003
2631,K2SnO3,K2SnO3_Va_O1,2.1971,-1.960791325583334,1.6419808485156369,1.9660257004440127,1.115145733327362,2,359,K2SnO3_Va_O1359,-2.0,-1.7286558336911757,-1.6746277475944926,0.8643279168455877,-1.538575818365933,7.685274288713003
2634,K2SnO3,K2SnO3_Va_O2,2.1971,-1.960791325583334,1.4201159474305936,0.981756732522758,3.5255807400002457,0,431,K2SnO3_Va_O2431,-2.0,-1.665475860185401,-1.665475860185401,0.8327379300927005,-1.538575818365933,5.416031765070862
2636,K2SnO3,K2SnO3_Va_O2,2.1971,-1.960791325583334,1.4201159474305936,0.981756732522758,3.071916170175963,1,431,K2SnO3_Va_O2431,-2.0,-1.665475860185401,-1.665475860185401,0.8327379300927005,-1.538575818365933,5.416031765070862
2638,K3AlO3,K3AlO3_Va_O1,2.9283,-2.2661893055714293,1.0800495065327116,1.0387619461920332,6.267663470000011,0,95,K3AlO3_Va_O195,-2.0,-1.6126340423270378,-1.6126340423270378,0.8063170211635189,-1.8820736227458112,7.125029153903435
2641,K3AlO3,K3AlO3_Va_O1,2.9283,-2.2661893055714293,1.0800495065327116,1.0387619461920332,4.9804764836406115,1,95,K3AlO3_Va_O195,-2.0,-1.6126340423270378,-1.6126340423270378,0.8063170211635189,-1.8820736227458112,7.125029153903435
2644,K3AlO3,K3AlO3_Va_O1,2.9283,-2.2661893055714293,1.0800495065327116,1.0387619461920332,4.762640567091255,2,95,K3AlO3_Va_O195,-2.0,-1.6126340423270378,-1.6126340423270378,0.8063170211635189,-1.8820736227458112,7.125029153903435
2647,K3AlO3,K3AlO3_Va_O2,2.9283,-2.2661893055714293,1.2786564924728616,2.053009951415153,6.590519959999947,0,111,K3AlO3_Va_O2111,-2.0,-1.5456953611725366,-1.5456953611725368,0.7728476805862683,-1.8820736227458112,4.910369345973831
2649,K3AlO3,K3AlO3_Va_O2,2.9283,-2.2661893055714293,1.2786564924728616,2.053009951415153,4.684701807750381,1,111,K3AlO3_Va_O2111,-2.0,-1.5456953611725366,-1.5456953611725368,0.7728476805862683,-1.8820736227458112,4.910369345973831
2651,K3BiO3,K3BiO3_Va_O1,2.9837,-1.6843301366428576,1.1934222549807096,1.288544118901772,4.336039210000203,0,447,K3BiO3_Va_O1447,-2.0,-1.7860169789679323,-1.7860169789679323,0.8930084894839663,-0.9858147743813158,6.062063903179833
2654,K3BiO3,K3BiO3_Va_O1,2.9837,-1.6843301366428576,1.1934222549807096,1.288544118901772,2.2745174388482727,1,447,K3BiO3_Va_O1447,-2.0,-1.7860169789679323,-1.7860169789679323,0.8930084894839663,-0.9858147743813158,6.062063903179833
2657,K3BiO3,K3BiO3_Va_O1,2.9837,-1.6843301366428576,1.1934222549807096,1.288544118901772,2.645915281872235,2,447,K3BiO3_Va_O1447,-2.0,-1.7860169789679323,-1.7860169789679323,0.8930084894839663,-0.9858147743813158,6.062063903179833
2683,K3GaO3,K3GaO3_Va_O1,2.6601,-1.896276210928572,1.1061070957060146,1.0603584466270697,4.972336149999942,0,111,K3GaO3_Va_O1111,-2.0,-1.502418033636132,-1.502418033636132,0.7512090168180661,-1.8812876656363955,6.494201673596653
2686,K3GaO3,K3GaO3_Va_O1,2.6601,-1.896276210928572,1.1061070957060146,1.0603584466270697,3.8521601695684087,1,111,K3GaO3_Va_O1111,-2.0,-1.502418033636132,-1.502418033636132,0.7512090168180661,-1.8812876656363955,6.494201673596653
2689,K3GaO3,K3GaO3_Va_O1,2.6601,-1.896276210928572,1.1061070957060146,1.0603584466270697,3.36522569960178,2,111,K3GaO3_Va_O1111,-2.0,-1.502418033636132,-1.502418033636132,0.7512090168180661,-1.8812876656363955,6.494201673596653
2692,K3GaO3,K3GaO3_Va_O2,2.6601,-1.896276210928572,1.333852158847869,1.8971655830202352,5.159453799999946,0,87,K3GaO3_Va_O287,-2.0,-1.3421676047430124,-1.3421676047430129,0.6710838023715062,-1.8812876656363955,4.006761567150508
2695,K3GaO3,K3GaO3_Va_O2,2.6601,-1.896276210928572,1.333852158847869,1.8971655830202352,3.4407180467901943,1,87,K3GaO3_Va_O287,-2.0,-1.3421676047430124,-1.3421676047430129,0.6710838023715062,-1.8812876656363955,4.006761567150508
2698,K3GaO3,K3GaO3_Va_O2,2.6601,-1.896276210928572,1.333852158847869,1.8971655830202352,2.230336273067277,2,87,K3GaO3_Va_O287,-2.0,-1.3421676047430124,-1.3421676047430129,0.6710838023715062,-1.8812876656363955,4.006761567150508
2701,K3SbO3,K3SbO3_Va_O1,3.2578,-1.824618118785715,1.2538072174838404,1.6317101373212508,4.743258180000007,0,223,K3SbO3_Va_O1223,-2.0,-1.7782019590086888,-1.778201959008689,0.8891009795043444,-1.2369755737418262,7.645229450444804
2704,K3SbO3,K3SbO3_Va_O1,3.2578,-1.824618118785715,1.2538072174838404,1.6317101373212508,2.9598832095543823,1,223,K3SbO3_Va_O1223,-2.0,-1.7782019590086888,-1.778201959008689,0.8891009795043444,-1.2369755737418262,7.645229450444804
2707,K3SbO3,K3SbO3_Va_O1,3.2578,-1.824618118785715,1.2538072174838404,1.6317101373212508,2.59973497225578,2,223,K3SbO3_Va_O1223,-2.0,-1.7782019590086888,-1.778201959008689,0.8891009795043444,-1.2369755737418262,7.645229450444804
2710,K4Be3O5,K4Be3O5_Va_O1,3.2212,-2.308588006000001,1.257701346762865,2.184786527545679,7.1359624299999584,0,63,K4Be3O5_Va_O163,-2.0,-1.2893791899483484,-1.4223763765223718,0.6446895949741742,-1.8820736227458112,3.9442063901660664
2712,K4Be3O5,K4Be3O5_Va_O1,3.2212,-2.308588006000001,1.257701346762865,2.184786527545679,5.304838265804646,1,63,K4Be3O5_Va_O163,-2.0,-1.2893791899483484,-1.4223763765223718,0.6446895949741742,-1.8820736227458112,3.9442063901660664
2714,K4Be3O5,K4Be3O5_Va_O2,3.2212,-2.308588006000001,1.183539486966224,1.3781464907697278,6.753646529999978,0,79,K4Be3O5_Va_O279,-2.0,-1.7092427823300005,-1.7092427823300005,0.8546213911650002,-1.8820736227458112,8.746318634077374
2716,K4Be3O5,K4Be3O5_Va_O2,3.2212,-2.308588006000001,1.183539486966224,1.3781464907697278,4.82410303120105,1,79,K4Be3O5_Va_O279,-2.0,-1.7092427823300005,-1.7092427823300005,0.8546213911650002,-1.8820736227458112,8.746318634077374
2718,K4Be3O5,K4Be3O5_Va_O3,3.2212,-2.308588006000001,1.184784264141722,1.4398180871089854,6.7667944599999235,0,95,K4Be3O5_Va_O395,-2.0,-0.9597024866759184,-1.5274416016918722,0.4798512433379592,-1.8820736227458112,2.9357265187109594
2720,K4Be3O5,K4Be3O5_Va_O3,3.2212,-2.308588006000001,1.184784264141722,1.4398180871089854,4.754746225019637,1,95,K4Be3O5_Va_O395,-2.0,-0.9597024866759184,-1.5274416016918722,0.4798512433379592,-1.8820736227458112,2.9357265187109594
2722,K4PbO4,K4PbO4_Va_O1,1.6806,-1.5853561968888892,1.2224163988574512,0.8796687145391631,2.798769679999973,0,233,K4PbO4_Va_O1233,-2.0,-1.7128136814641446,-1.7128136814641446,0.8564068407320723,-0.2712847561180753,5.844423900077695
2724,K4PbO4,K4PbO4_Va_O1,1.6806,-1.5853561968888892,1.2224163988574512,0.8796687145391631,2.217789534479252,1,233,K4PbO4_Va_O1233,-2.0,-1.7128136814641446,-1.7128136814641446,0.8564068407320723,-0.2712847561180753,5.844423900077695
2726,K4PbO4,K4PbO4_Va_O2,1.6806,-1.5853561968888892,1.1979646371667434,0.8175647508665369,2.91189354000006,0,251,K4PbO4_Va_O2251,-2.0,-1.6987847290745306,-1.6987847290745306,0.8493923645372653,-0.2712847561180753,5.796554627706619
2728,K4PbO4,K4PbO4_Va_O2,1.6806,-1.5853561968888892,1.1979646371667434,0.8175647508665369,2.312484327438762,1,251,K4PbO4_Va_O2251,-2.0,-1.6987847290745306,-1.6987847290745306,0.8493923645372653,-0.2712847561180753,5.796554627706619
2730,K4PbO4,K4PbO4_Va_O3,1.6806,-1.5853561968888892,1.2120385651215948,0.8685292194312457,2.6679323500001235,0,323,K4PbO4_Va_O3323,-2.0,-1.587388403339328,-1.587388403339328,0.793694201669664,-0.2712847561180753,5.416450617823225
2732,K4PbO4,K4PbO4_Va_O3,1.6806,-1.5853561968888892,1.2120385651215948,0.8685292194312457,2.0083447538485046,1,323,K4PbO4_Va_O3323,-2.0,-1.587388403339328,-1.587388403339328,0.793694201669664,-0.2712847561180753,5.416450617823225
2734,K4PbO4,K4PbO4_Va_O4,1.6806,-1.5853561968888892,1.3188050139552487,0.9202323024462608,2.449365549999934,0,305,K4PbO4_Va_O4305,-2.0,-1.587345149319272,-1.587345149319272,0.793672574659636,-0.2712847561180753,3.782864805725862
2736,K4PbO4,K4PbO4_Va_O4,1.6806,-1.5853561968888892,1.3188050139552487,0.9202323024462608,1.847330687533206,1,305,K4PbO4_Va_O4305,-2.0,-1.587345149319272,-1.587345149319272,0.793672574659636,-0.2712847561180753,3.782864805725862
2738,K4SnO4,K4SnO4_Va_O1,2.3496,-1.833078164111112,1.1516050551456698,0.9923581387123116,4.204709850000095,0,215,K4SnO4_Va_O1215,-2.0,-1.6772411939043874,-1.6772411939043876,0.8386205969521937,-1.538575818365933,6.317264280618883
2741,K4SnO4,K4SnO4_Va_O1,2.3496,-1.833078164111112,1.1516050551456698,0.9923581387123116,3.37678564136883,1,215,K4SnO4_Va_O1215,-2.0,-1.6772411939043874,-1.6772411939043876,0.8386205969521937,-1.538575818365933,6.317264280618883
2744,K4SnO4,K4SnO4_Va_O1,2.3496,-1.833078164111112,1.1516050551456698,0.9923581387123116,1.995238364607347,2,215,K4SnO4_Va_O1215,-2.0,-1.6772411939043874,-1.6772411939043876,0.8386205969521937,-1.538575818365933,6.317264280618883
2747,K4SnO4,K4SnO4_Va_O2,2.3496,-1.833078164111112,1.1681144091918765,1.0352734729656528,3.950233590000048,0,251,K4SnO4_Va_O2251,-2.0,-1.5052088325683586,-1.5052088325683586,0.7526044162841793,-1.538575818365933,5.669311025399367
2750,K4SnO4,K4SnO4_Va_O2,2.3496,-1.833078164111112,1.1681144091918765,1.0352734729656528,3.116226486433191,1,251,K4SnO4_Va_O2251,-2.0,-1.5052088325683586,-1.5052088325683586,0.7526044162841793,-1.538575818365933,5.669311025399367
2753,K4SnO4,K4SnO4_Va_O2,2.3496,-1.833078164111112,1.1681144091918765,1.0352734729656528,3.092315816256432,2,251,K4SnO4_Va_O2251,-2.0,-1.5052088325683586,-1.5052088325683586,0.7526044162841793,-1.538575818365933,5.669311025399367
2756,K4SnO4,K4SnO4_Va_O3,2.3496,-1.833078164111112,1.182490890443199,1.056643674357346,4.045207150000019,0,287,K4SnO4_Va_O3287,-2.0,-1.6588118381789276,-1.6588118381789276,0.8294059190894638,-1.538575818365933,6.24785082293469
2759,K4SnO4,K4SnO4_Va_O3,2.3496,-1.833078164111112,1.182490890443199,1.056643674357346,3.279844265611324,1,287,K4SnO4_Va_O3287,-2.0,-1.6588118381789276,-1.6588118381789276,0.8294059190894638,-1.538575818365933,6.24785082293469
2762,K4SnO4,K4SnO4_Va_O3,2.3496,-1.833078164111112,1.182490890443199,1.056643674357346,3.327839208492438,2,287,K4SnO4_Va_O3287,-2.0,-1.6588118381789276,-1.6588118381789276,0.8294059190894638,-1.538575818365933,6.24785082293469
2765,K4SnO4,K4SnO4_Va_O4,2.3496,-1.833078164111112,1.2507091155316088,1.0674981018668082,3.782446660000128,0,323,K4SnO4_Va_O4323,-2.0,-1.5134705801259258,-1.5134705801259258,0.7567352900629629,-1.538575818365933,4.143010084296516
2767,K4SnO4,K4SnO4_Va_O4,2.3496,-1.833078164111112,1.2507091155316088,1.0674981018668082,3.0525128451618926,1,323,K4SnO4_Va_O4323,-2.0,-1.5134705801259258,-1.5134705801259258,0.7567352900629629,-1.538575818365933,4.143010084296516
2769,K6MgO4,K6MgO4_Va_O1,1.7312,-1.5861545939090913,0.9224249235006576,0.7547089892170609,4.571643844391261,1,191,K6MgO4_Va_O1191,-2.0,-0.4162686998178615,-1.2014285478556437,0.2081343499089307,-1.8820736227458112,0.3588633235116914
2771,K6MgO4,K6MgO4_Va_O1,1.7312,-1.5861545939090913,0.9224249235006576,0.7547089892170609,4.408550771379312,2,191,K6MgO4_Va_O1191,-2.0,-0.4162686998178615,-1.2014285478556437,0.2081343499089307,-1.8820736227458112,0.3588633235116914
2773,K6MgO4,K6MgO4_Va_O2,1.7312,-1.5861545939090913,0.9188701482320633,0.7077045917073994,4.445217639213089,1,263,K6MgO4_Va_O2263,-2.0,-1.284375161683031,-1.2843751616830308,0.6421875808415155,-1.8820736227458112,5.733101136369429
2775,K6MgO4,K6MgO4_Va_O2,1.7312,-1.5861545939090913,0.9188701482320633,0.7077045917073994,4.5835344105616525,2,263,K6MgO4_Va_O2263,-2.0,-1.284375161683031,-1.2843751616830308,0.6421875808415155,-1.8820736227458112,5.733101136369429
2777,K6Si2O7,K6Si2O7_Va_O1,3.5319,-2.4870975168666662,1.790471193679351,3.797042472662029,6.4773957900000685,0,251,K6Si2O7_Va_O1251,-2.0,-2.0416216292672855,-2.389796325610063,1.0208108146336428,-1.8820736227458112,9.835927238012813
2779,K6Si2O7,K6Si2O7_Va_O1,3.5319,-2.4870975168666662,1.790471193679351,3.797042472662029,3.9435497903432744,1,251,K6Si2O7_Va_O1251,-2.0,-2.0416216292672855,-2.389796325610063,1.0208108146336428,-1.8820736227458112,9.835927238012813
2781,K6Si2O7,K6Si2O7_Va_O2,3.5319,-2.4870975168666662,1.294650795359,1.7793668779087084,6.392391709999979,0,359,K6Si2O7_Va_O2359,-2.0,-1.2239621706549602,-1.952337298856505,0.6119810853274801,-1.8820736227458112,2.948343287527522
2784,K6Si2O7,K6Si2O7_Va_O2,3.5319,-2.4870975168666662,1.294650795359,1.7793668779087084,4.7897512475867865,1,359,K6Si2O7_Va_O2359,-2.0,-1.2239621706549602,-1.952337298856505,0.6119810853274801,-1.8820736227458112,2.948343287527522
2787,K6Si2O7,K6Si2O7_Va_O2,3.5319,-2.4870975168666662,1.294650795359,1.7793668779087084,4.15202592344761,2,359,K6Si2O7_Va_O2359,-2.0,-1.2239621706549602,-1.952337298856505,0.6119810853274801,-1.8820736227458112,2.948343287527522
2790,K6Si2O7,K6Si2O7_Va_O3,3.5319,-2.4870975168666662,1.2739813815063414,1.7761314716497294,6.380189700000196,0,299,K6Si2O7_Va_O3299,-2.0,-1.1964244406862965,-1.6933611012599972,0.5982122203431482,-1.8820736227458112,2.8820089814080703
2792,K6Si2O7,K6Si2O7_Va_O3,3.5319,-2.4870975168666662,1.2739813815063414,1.7761314716497294,4.762226607959575,1,299,K6Si2O7_Va_O3299,-2.0,-1.1964244406862965,-1.6933611012599972,0.5982122203431482,-1.8820736227458112,2.8820089814080703
2794,K6Si2O7,K6Si2O7_Va_O4,3.5319,-2.4870975168666662,1.2557634113310585,1.8032797918292611,6.447219470000059,0,347,K6Si2O7_Va_O4347,-2.0,-1.2084138096883326,-1.9988333216990737,0.6042069048441663,-1.8820736227458112,2.91088959264455
2796,K6Si2O7,K6Si2O7_Va_O4,3.5319,-2.4870975168666662,1.2557634113310585,1.8032797918292611,4.802013150280963,1,347,K6Si2O7_Va_O4347,-2.0,-1.2084138096883326,-1.9988333216990737,0.6042069048441663,-1.8820736227458112,2.91088959264455
2798,KAsO2,KAsO2_Va_O1,3.7234,-1.893294109499999,2.0428502601032266,3.2521215720271996,4.401670849999968,0,143,KAsO2_Va_O1143,-2.0,-1.7737514101010172,-1.9122443285038109,0.8868757050505086,-1.150088447140494,6.095949229287333
2801,KAsO2,KAsO2_Va_O1,3.7234,-1.893294109499999,2.0428502601032266,3.2521215720271996,1.5395874978376007,1,143,KAsO2_Va_O1143,-2.0,-1.7737514101010172,-1.9122443285038109,0.8868757050505086,-1.150088447140494,6.095949229287333
2804,KAsO2,KAsO2_Va_O1,3.7234,-1.893294109499999,2.0428502601032266,3.2521215720271996,-0.6238892598899519,2,143,KAsO2_Va_O1143,-2.0,-1.7737514101010172,-1.9122443285038109,0.8868757050505086,-1.150088447140494,6.095949229287333
2807,KAsO2,KAsO2_Va_O2,3.7234,-1.893294109499999,1.588438492138496,2.063522492275746,3.475804520000006,0,191,KAsO2_Va_O2191,-2.0,-2.043298263513434,-2.043298263513434,1.021649131756717,-1.150088447140494,7.716420335859119
2809,KAsO2,KAsO2_Va_O2,3.7234,-1.893294109499999,1.588438492138496,2.063522492275746,2.5689774178471234,1,191,KAsO2_Va_O2191,-2.0,-2.043298263513434,-2.043298263513434,1.021649131756717,-1.150088447140494,7.716420335859119
2811,KBO2,KBO2_Va_O1,4.124499999999999,-2.6493241330416666,1.808379796125676,4.31807050059917,6.284706359999982,0,107,KBO2_Va_O1107,-2.0,-1.7620773208398224,-2.036476690438647,0.8810386604199112,-1.8820736227458112,9.57950319485265
2814,KBO2,KBO2_Va_O1,4.124499999999999,-2.6493241330416666,1.808379796125676,4.31807050059917,3.8515005627139023,1,107,KBO2_Va_O1107,-2.0,-1.7620773208398224,-2.036476690438647,0.8810386604199112,-1.8820736227458112,9.57950319485265
2817,KBO2,KBO2_Va_O1,4.124499999999999,-2.6493241330416666,1.808379796125676,4.31807050059917,1.7617824638606616,2,107,KBO2_Va_O1107,-2.0,-1.7620773208398224,-2.036476690438647,0.8810386604199112,-1.8820736227458112,9.57950319485265
2820,KBO2,KBO2_Va_O2,4.124499999999999,-2.6493241330416666,1.393001769043842,2.1606247264216587,5.338769835704799,1,143,KBO2_Va_O2143,-2.0,-1.2054426265593672,-1.77832032785893,0.6027213132796836,-1.8820736227458112,3.276684103406246
2822,KBO2,KBO2_Va_O2,4.124499999999999,-2.6493241330416666,1.393001769043842,2.1606247264216587,5.685230831825043,2,143,KBO2_Va_O2143,-2.0,-1.2054426265593672,-1.77832032785893,0.6027213132796836,-1.8820736227458112,3.276684103406246
2825,KBa4Sb3O,KBa4Sb3O_Va_O1,0.9939,-1.4560364542222222,0.9278039844650452,2.6329159355440073,1.7074321381956588,2,143,KBa4Sb3O_Va_O1143,-2.0,-1.9301518939865463,-1.9301518939865463,0.9650759469932731,-1.8820736227458112,6.550070919158248
2826,KBiO2,KBiO2_Va_O1,1.6872000000000005,-1.7274063657499994,1.6909699068975024,2.182037568463405,4.066238960000087,0,191,KBiO2_Va_O1191,-2.0,-1.8906716021338847,-1.8906716021338847,0.9453358010669424,-0.9858147743813158,6.025056990092086