,formula,full_name,band_gap,formation_energy,nn_ave_eleneg,o2p_center_from_vbm,vacancy_formation_energy,charge,vacancy_index,merge_on,valence,bv_sum_Crystal,bv_sum_nn,BVS_ratio,vr_max,Eb_sum
1425,CaAl4O7,CaAl4O7_Va_O1,4.1142,-3.4639722058333335,2.088177094032116,3.144216966527723,0.973748094420283,2,167,CaAl4O7_Va_O1167,-2.0,-2.146176612865162,-2.146176612865162,1.073088306432581,-2.8945619964631555,8.570597091066967
1428,CaAl4O7,CaAl4O7_Va_O2,4.1142,-3.4639722058333335,2.1039549337889567,2.138266166770475,6.773601379999841,0,215,CaAl4O7_Va_O2215,-2.0,-2.107081530150681,-2.107081530150681,1.0535407650753406,-2.8945619964631555,7.5447006347562
1431,CaAl4O7,CaAl4O7_Va_O2,4.1142,-3.4639722058333335,2.1039549337889567,2.138266166770475,5.035216993022254,1,215,CaAl4O7_Va_O2215,-2.0,-2.107081530150681,-2.107081530150681,1.0535407650753406,-2.8945619964631555,7.5447006347562
1434,CaAl4O7,CaAl4O7_Va_O2,4.1142,-3.4639722058333335,2.1039549337889567,2.138266166770475,3.1098572757796186,2,215,CaAl4O7_Va_O2215,-2.0,-2.107081530150681,-2.107081530150681,1.0535407650753406,-2.8945619964631555,7.5447006347562
1437,CaAl4O7,CaAl4O7_Va_O3,4.1142,-3.4639722058333335,1.963616567386678,2.110231573195404,6.96492865000017,0,287,CaAl4O7_Va_O3287,-2.0,-1.945935108783582,-1.9950027054372288,0.972967554391791,-2.8945619964631555,6.967693295372375
1440,CaAl4O7,CaAl4O7_Va_O3,4.1142,-3.4639722058333335,1.963616567386678,2.110231573195404,5.042351922698292,1,287,CaAl4O7_Va_O3287,-2.0,-1.945935108783582,-1.9950027054372288,0.972967554391791,-2.8945619964631555,6.967693295372375
1443,CaAl4O7,CaAl4O7_Va_O3,4.1142,-3.4639722058333335,1.963616567386678,2.110231573195404,2.065083538233176,2,287,CaAl4O7_Va_O3287,-2.0,-1.945935108783582,-1.9950027054372288,0.972967554391791,-2.8945619964631555,6.967693295372375
1446,CaAl4O7,CaAl4O7_Va_O4,4.1142,-3.4639722058333335,2.0158749846122253,2.377521384129426,6.850801999999826,0,263,CaAl4O7_Va_O4263,-2.0,-1.798700221451446,-1.8941622425877669,0.899350110725723,-2.8945619964631555,6.44049815269862
1448,CaAl4O7,CaAl4O7_Va_O4,4.1142,-3.4639722058333335,2.0158749846122253,2.377521384129426,4.383848352954572,1,263,CaAl4O7_Va_O4263,-2.0,-1.798700221451446,-1.8941622425877669,0.899350110725723,-2.8945619964631555,6.44049815269862
1450,CaAlBO4,CaAlBO4_Va_O1,4.8482,-3.322331291309524,2.1439313154614004,2.673581501380673,6.766489970000189,0,323,CaAlBO4_Va_O1323,-2.0,-2.0289629621902665,-2.0289629621902665,1.0144814810951333,-2.1905056483979153,10.079359674419713
1452,CaAlBO4,CaAlBO4_Va_O1,4.8482,-3.322331291309524,2.1439313154614004,2.673581501380673,4.5752370244097715,1,323,CaAlBO4_Va_O1323,-2.0,-2.0289629621902665,-2.0289629621902665,1.0144814810951333,-2.1905056483979153,10.079359674419713
1454,CaAlBO4,CaAlBO4_Va_O2,4.8482,-3.322331291309524,2.0478058480266785,1.7863333742503076,6.844755980000068,0,287,CaAlBO4_Va_O2287,-2.0,-2.086816381052044,-2.086816381052044,1.043408190526022,-2.1905056483979153,7.472138429127174
1457,CaAlBO4,CaAlBO4_Va_O2,4.8482,-3.322331291309524,2.0478058480266785,1.7863333742503076,5.383808372360998,1,287,CaAlBO4_Va_O2287,-2.0,-2.086816381052044,-2.086816381052044,1.043408190526022,-2.1905056483979153,7.472138429127174
1460,CaAlBO4,CaAlBO4_Va_O2,4.8482,-3.322331291309524,2.0478058480266785,1.7863333742503076,3.490940923631578,2,287,CaAlBO4_Va_O2287,-2.0,-2.086816381052044,-2.086816381052044,1.043408190526022,-2.1905056483979153,7.472138429127174
1463,CaAlBO4,CaAlBO4_Va_O3,4.8482,-3.322331291309524,2.130939750409299,2.7556880128098364,6.860144059999934,0,215,CaAlBO4_Va_O3215,-2.0,-1.9610207727503035,-1.9610207727503035,0.980510386375152,-2.1905056483979153,9.741840568751227
1466,CaAlBO4,CaAlBO4_Va_O3,4.8482,-3.322331291309524,2.130939750409299,2.7556880128098364,4.612367861199396,1,215,CaAlBO4_Va_O3215,-2.0,-1.9610207727503035,-1.9610207727503035,0.980510386375152,-2.1905056483979153,9.741840568751227
1469,CaAlBO4,CaAlBO4_Va_O3,4.8482,-3.322331291309524,2.130939750409299,2.7556880128098364,1.0415576674360407,2,215,CaAlBO4_Va_O3215,-2.0,-1.9610207727503035,-1.9610207727503035,0.980510386375152,-2.1905056483979153,9.741840568751227
1472,CaAlBO4,CaAlBO4_Va_O4,4.8482,-3.322331291309524,1.867220847728845,1.9850240612699055,7.178106530000045,0,335,CaAlBO4_Va_O4335,-2.0,-1.85919444152628,-1.85919444152628,0.92959722076314,-2.1905056483979153,10.175947770809312
1475,CaAlBO4,CaAlBO4_Va_O4,4.8482,-3.322331291309524,1.867220847728845,1.9850240612699055,4.82365603236269,1,335,CaAlBO4_Va_O4335,-2.0,-1.85919444152628,-1.85919444152628,0.92959722076314,-2.1905056483979153,10.175947770809312
1478,CaAlBO4,CaAlBO4_Va_O4,4.8482,-3.322331291309524,1.867220847728845,1.9850240612699055,2.0253659666385335,2,335,CaAlBO4_Va_O4335,-2.0,-1.85919444152628,-1.85919444152628,0.92959722076314,-2.1905056483979153,10.175947770809312
1481,CaGa4O7,CaGa4O7_Va_O1,2.6787,-2.506107837916666,2.1316318553997298,2.3698296539918005,4.740904160000023,0,47,CaGa4O7_Va_O147,-2.0,-1.7449259445263268,-1.8058794169193573,0.8724629722631634,-1.8812876656363955,5.913778822710361
1483,CaGa4O7,CaGa4O7_Va_O1,2.6787,-2.506107837916666,2.1316318553997298,2.3698296539918005,3.2797292040919785,1,47,CaGa4O7_Va_O147,-2.0,-1.7449259445263268,-1.8058794169193573,0.8724629722631634,-1.8812876656363955,5.913778822710361
1485,CaGa4O7,CaGa4O7_Va_O2,2.6787,-2.506107837916666,2.192568473700708,2.287998240434402,4.638148409999994,0,63,CaGa4O7_Va_O263,-2.0,-1.8961813609072624,-1.8961813609072624,0.9480906804536312,-1.8812876656363955,6.4264029148787145
1488,CaGa4O7,CaGa4O7_Va_O2,2.6787,-2.506107837916666,2.192568473700708,2.287998240434402,3.5442432513847963,1,63,CaGa4O7_Va_O263,-2.0,-1.8961813609072624,-1.8961813609072624,0.9480906804536312,-1.8812876656363955,6.4264029148787145
1491,CaGa4O7,CaGa4O7_Va_O2,2.6787,-2.506107837916666,2.192568473700708,2.287998240434402,1.6261113110675054,2,63,CaGa4O7_Va_O263,-2.0,-1.8961813609072624,-1.8961813609072624,0.9480906804536312,-1.8812876656363955,6.4264029148787145
1494,CaGa4O7,CaGa4O7_Va_O3,2.6787,-2.506107837916666,2.099390967427051,2.15246393080537,4.927625449999946,0,79,CaGa4O7_Va_O379,-2.0,-1.7895492883045805,-1.7895492883045805,0.8947746441522901,-1.8812876656363955,6.065013083546568
1497,CaGa4O7,CaGa4O7_Va_O3,2.6787,-2.506107837916666,2.099390967427051,2.15246393080537,3.616042720752844,1,79,CaGa4O7_Va_O379,-2.0,-1.7895492883045805,-1.7895492883045805,0.8947746441522901,-1.8812876656363955,6.065013083546568
1500,CaGa4O7,CaGa4O7_Va_O3,2.6787,-2.506107837916666,2.099390967427051,2.15246393080537,1.0718221455549772,2,79,CaGa4O7_Va_O379,-2.0,-1.7895492883045805,-1.7895492883045805,0.8947746441522901,-1.8812876656363955,6.065013083546568
1503,CaGa4O7,CaGa4O7_Va_O4,2.6787,-2.506107837916666,2.222047636805791,3.094619766232644,5.144887999999932,0,95,CaGa4O7_Va_O495,-2.0,-1.888392163321112,-1.888392163321112,0.944196081660556,-1.8812876656363955,6.998681421031793
1506,CaGa4O7,CaGa4O7_Va_O4,2.6787,-2.506107837916666,2.222047636805791,3.094619766232644,2.874702212623485,1,95,CaGa4O7_Va_O495,-2.0,-1.888392163321112,-1.888392163321112,0.944196081660556,-1.8812876656363955,6.998681421031793
1509,CaGa4O7,CaGa4O7_Va_O4,2.6787,-2.506107837916666,2.222047636805791,3.094619766232644,-0.1816966149207199,2,95,CaGa4O7_Va_O495,-2.0,-1.888392163321112,-1.888392163321112,0.944196081660556,-1.8812876656363955,6.998681421031793
1512,CaGaBO4,CaGaBO4_Va_O1,4.0537,-2.9093757377380953,2.188593201123475,2.812982007317987,5.677942270000026,0,311,CaGaBO4_Va_O1311,-2.0,-1.9281657999094095,-1.9281657999094095,0.9640828999547048,-1.8812876656363955,9.393992870696787
1515,CaGaBO4,CaGaBO4_Va_O1,4.0537,-2.9093757377380953,2.188593201123475,2.812982007317987,3.805024489388096,1,311,CaGaBO4_Va_O1311,-2.0,-1.9281657999094095,-1.9281657999094095,0.9640828999547048,-1.8812876656363955,9.393992870696787
1518,CaGaBO4,CaGaBO4_Va_O1,4.0537,-2.9093757377380953,2.188593201123475,2.812982007317987,-0.2826467460312591,2,311,CaGaBO4_Va_O1311,-2.0,-1.9281657999094095,-1.9281657999094095,0.9640828999547048,-1.8812876656363955,9.393992870696787
1521,CaGaBO4,CaGaBO4_Va_O2,4.0537,-2.9093757377380953,1.877953642280059,2.1154879613438142,7.011004410000064,0,323,CaGaBO4_Va_O2323,-2.0,-1.855832684277288,-1.855832684277288,0.927916342138644,-1.8812876656363955,10.157547830803146
1523,CaGaBO4,CaGaBO4_Va_O2,4.0537,-2.9093757377380953,1.877953642280059,2.1154879613438142,4.647475303192866,1,323,CaGaBO4_Va_O2323,-2.0,-1.855832684277288,-1.855832684277288,0.927916342138644,-1.8812876656363955,10.157547830803146
1525,CaGaBO4,CaGaBO4_Va_O3,4.0537,-2.9093757377380953,2.1612030597250236,2.0151700060599893,4.482450480000248,0,287,CaGaBO4_Va_O3287,-2.0,-1.9240490330852864,-1.9240490330852864,0.9620245165426432,-1.8812876656363955,6.520850046048725
1527,CaGaBO4,CaGaBO4_Va_O3,4.0537,-2.9093757377380953,2.1612030597250236,2.0151700060599893,3.5554208767014295,1,287,CaGaBO4_Va_O3287,-2.0,-1.9240490330852864,-1.9240490330852864,0.9620245165426432,-1.8812876656363955,6.520850046048725
1529,CaGaBO4,CaGaBO4_Va_O4,4.0537,-2.9093757377380953,2.1747770956015717,2.9328806742666065,5.739441990000055,0,335,CaGaBO4_Va_O4335,-2.0,-1.865395473298687,-1.8653954732986873,0.9326977366493436,-1.8812876656363955,9.088176845591406
1532,CaGaBO4,CaGaBO4_Va_O4,4.0537,-2.9093757377380953,2.1747770956015717,2.9328806742666065,3.746622244100042,1,335,CaGaBO4_Va_O4335,-2.0,-1.865395473298687,-1.8653954732986873,0.9326977366493436,-1.8812876656363955,9.088176845591406
1535,CaGaBO4,CaGaBO4_Va_O4,4.0537,-2.9093757377380953,2.1747770956015717,2.9328806742666065,0.5059207684907308,2,335,CaGaBO4_Va_O4335,-2.0,-1.865395473298687,-1.8653954732986873,0.9326977366493436,-1.8812876656363955,9.088176845591406
1538,CaIn2O4,CaIn2O4_Va_O1,2.0752,-2.394796169285714,2.0342771754084517,1.5120940085150172,5.04011231999983,0,447,CaIn2O4_Va_O1447,-2.0,-1.549838774726172,-1.549838774726172,0.774919387363086,-1.5993795332042406,5.769880638842295
1541,CaIn2O4,CaIn2O4_Va_O1,2.0752,-2.394796169285714,2.0342771754084517,1.5120940085150172,3.1854673968987433,1,447,CaIn2O4_Va_O1447,-2.0,-1.549838774726172,-1.549838774726172,0.774919387363086,-1.5993795332042406,5.769880638842295
1544,CaIn2O4,CaIn2O4_Va_O1,2.0752,-2.394796169285714,2.0342771754084517,1.5120940085150172,1.4254280145193088,2,447,CaIn2O4_Va_O1447,-2.0,-1.549838774726172,-1.549838774726172,0.774919387363086,-1.5993795332042406,5.769880638842295
1547,CaMg(SiO3)2,CaMg(SiO3)2_Va_O1,5.056100000000001,-3.3468844764999996,2.240869199693262,3.7623023802311546,6.69820555000002,0,47,CaMg(SiO3)2_Va_O147,-2.0,-2.0845191970644104,-2.3281601121549977,1.0422595985322052,-2.356834901289411,10.042594991474884
1550,CaMg(SiO3)2,CaMg(SiO3)2_Va_O1,5.056100000000001,-3.3468844764999996,2.240869199693262,3.7623023802311546,4.2418687720712525,1,47,CaMg(SiO3)2_Va_O147,-2.0,-2.0845191970644104,-2.3281601121549977,1.0422595985322052,-2.356834901289411,10.042594991474884
1553,CaMg(SiO3)2,CaMg(SiO3)2_Va_O1,5.056100000000001,-3.3468844764999996,2.240869199693262,3.7623023802311546,-1.3870045446708796,2,47,CaMg(SiO3)2_Va_O147,-2.0,-2.0845191970644104,-2.3281601121549977,1.0422595985322052,-2.356834901289411,10.042594991474884
1556,CaMg(SiO3)2,CaMg(SiO3)2_Va_O2,5.056100000000001,-3.3468844764999996,2.231624228522082,1.896279671272239,6.329686270000034,0,63,CaMg(SiO3)2_Va_O263,-2.0,-2.0805112775559085,-2.080511277555909,1.0402556387779542,-2.356834901289411,8.715892667569205
1559,CaMg(SiO3)2,CaMg(SiO3)2_Va_O2,5.056100000000001,-3.3468844764999996,2.231624228522082,1.896279671272239,4.621464892125055,1,63,CaMg(SiO3)2_Va_O263,-2.0,-2.0805112775559085,-2.080511277555909,1.0402556387779542,-2.356834901289411,8.715892667569205
1562,CaMg(SiO3)2,CaMg(SiO3)2_Va_O2,5.056100000000001,-3.3468844764999996,2.231624228522082,1.896279671272239,1.722961992136125,2,63,CaMg(SiO3)2_Va_O263,-2.0,-2.0805112775559085,-2.080511277555909,1.0402556387779542,-2.356834901289411,8.715892667569205
1565,CaMg(SiO3)2,CaMg(SiO3)2_Va_O3,5.056100000000001,-3.3468844764999996,2.022506571784655,2.430394617278502,6.598490830000069,0,79,CaMg(SiO3)2_Va_O379,-2.0,-2.287001516657846,-2.2870015166578455,1.143500758328923,-2.356834901289411,11.552556343049329
1568,CaMg(SiO3)2,CaMg(SiO3)2_Va_O3,5.056100000000001,-3.3468844764999996,2.022506571784655,2.430394617278502,4.6620616810262865,1,79,CaMg(SiO3)2_Va_O379,-2.0,-2.287001516657846,-2.2870015166578455,1.143500758328923,-2.356834901289411,11.552556343049329
1571,CaMg(SiO3)2,CaMg(SiO3)2_Va_O3,5.056100000000001,-3.3468844764999996,2.022506571784655,2.430394617278502,3.397352496683863,2,79,CaMg(SiO3)2_Va_O379,-2.0,-2.287001516657846,-2.2870015166578455,1.143500758328923,-2.356834901289411,11.552556343049329
1574,CaMgGeO4,CaMgGeO4_Va_O1,3.5043999999999995,-2.871467272857142,1.9273864631193447,1.6588338733131098,4.727265450000013,0,103,CaMgGeO4_Va_O1103,-2.0,-1.8420499197947673,-1.8420499197947673,0.9210249598973836,-1.502819088333178,8.439291627871105
1577,CaMgGeO4,CaMgGeO4_Va_O1,3.5043999999999995,-2.871467272857142,1.9273864631193447,1.6588338733131098,3.39916077423317,1,103,CaMgGeO4_Va_O1103,-2.0,-1.8420499197947673,-1.8420499197947673,0.9210249598973836,-1.502819088333178,8.439291627871105
1580,CaMgGeO4,CaMgGeO4_Va_O1,3.5043999999999995,-2.871467272857142,1.9273864631193447,1.6588338733131098,1.4383807096195125,2,103,CaMgGeO4_Va_O1103,-2.0,-1.8420499197947673,-1.8420499197947673,0.9210249598973836,-1.502819088333178,8.439291627871105
1583,CaMgGeO4,CaMgGeO4_Va_O2,3.5043999999999995,-2.871467272857142,1.956212346090512,1.780325402562858,4.900803259999984,0,111,CaMgGeO4_Va_O2111,-2.0,-1.859676648357522,-1.859676648357522,0.929838324178761,-1.502819088333178,8.415420924501788
1586,CaMgGeO4,CaMgGeO4_Va_O2,3.5043999999999995,-2.871467272857142,1.956212346090512,1.780325402562858,3.402330677098817,1,111,CaMgGeO4_Va_O2111,-2.0,-1.859676648357522,-1.859676648357522,0.929838324178761,-1.502819088333178,8.415420924501788
1589,CaMgGeO4,CaMgGeO4_Va_O2,3.5043999999999995,-2.871467272857142,1.956212346090512,1.780325402562858,2.3681160715326013,2,111,CaMgGeO4_Va_O2111,-2.0,-1.859676648357522,-1.859676648357522,0.929838324178761,-1.502819088333178,8.415420924501788
1592,CaMgGeO4,CaMgGeO4_Va_O3,3.5043999999999995,-2.871467272857142,1.9816418619735563,2.1053243622751676,4.434127479999924,0,99,CaMgGeO4_Va_O399,-2.0,-1.8149247836635771,-1.814924783663577,0.9074623918317886,-1.502819088333178,8.212909493878342
1595,CaMgGeO4,CaMgGeO4_Va_O3,3.5043999999999995,-2.871467272857142,1.9816418619735563,2.1053243622751676,2.918613795223062,1,99,CaMgGeO4_Va_O399,-2.0,-1.8149247836635771,-1.814924783663577,0.9074623918317886,-1.502819088333178,8.212909493878342
1598,CaMgGeO4,CaMgGeO4_Va_O3,3.5043999999999995,-2.871467272857142,1.9816418619735563,2.1053243622751676,2.3994631804107276,2,99,CaMgGeO4_Va_O399,-2.0,-1.8149247836635771,-1.814924783663577,0.9074623918317886,-1.502819088333178,8.212909493878342
1601,CaMgSiO4,CaMgSiO4_Va_O1,4.683,-3.365238211785714,1.9036816924056348,1.945885346646104,6.7117096900000295,0,119,CaMgSiO4_Va_O1119,-2.0,-2.11337043689662,-2.11337043689662,1.05668521844831,-2.356834901289411,10.794376556545044
1604,CaMgSiO4,CaMgSiO4_Va_O1,4.683,-3.365238211785714,1.9036816924056348,1.945885346646104,4.680704225709636,1,119,CaMgSiO4_Va_O1119,-2.0,-2.11337043689662,-2.11337043689662,1.05668521844831,-2.356834901289411,10.794376556545044
1607,CaMgSiO4,CaMgSiO4_Va_O1,4.683,-3.365238211785714,1.9036816924056348,1.945885346646104,2.2485063121106066,2,119,CaMgSiO4_Va_O1119,-2.0,-2.11337043689662,-2.11337043689662,1.05668521844831,-2.356834901289411,10.794376556545044
1610,CaMgSiO4,CaMgSiO4_Va_O2,4.683,-3.365238211785714,1.9207107619102557,2.0946786633173695,6.806103920000064,0,143,CaMgSiO4_Va_O2143,-2.0,-2.1410418437557657,-2.1410418437557657,1.0705209218778828,-2.356834901289411,10.81525585035945
1613,CaMgSiO4,CaMgSiO4_Va_O2,4.683,-3.365238211785714,1.9207107619102557,2.0946786633173695,4.653350559352045,1,143,CaMgSiO4_Va_O2143,-2.0,-2.1410418437557657,-2.1410418437557657,1.0705209218778828,-2.356834901289411,10.81525585035945
1616,CaMgSiO4,CaMgSiO4_Va_O2,4.683,-3.365238211785714,1.9207107619102557,2.0946786633173695,3.174000244986606,2,143,CaMgSiO4_Va_O2143,-2.0,-2.1410418437557657,-2.1410418437557657,1.0705209218778828,-2.356834901289411,10.81525585035945
1619,CaMgSiO4,CaMgSiO4_Va_O3,4.683,-3.365238211785714,1.9567251696860763,2.2209658958816463,6.592335579999949,0,167,CaMgSiO4_Va_O3167,-2.0,-1.9740958271826623,-1.9740958271826623,0.9870479135913311,-2.356834901289411,9.971944969863443
1622,CaMgSiO4,CaMgSiO4_Va_O3,4.683,-3.365238211785714,1.9567251696860763,2.2209658958816463,4.473914296885401,1,167,CaMgSiO4_Va_O3167,-2.0,-1.9740958271826623,-1.9740958271826623,0.9870479135913311,-2.356834901289411,9.971944969863443
1625,CaMgSiO4,CaMgSiO4_Va_O3,4.683,-3.365238211785714,1.9567251696860763,2.2209658958816463,3.388805033719442,2,167,CaMgSiO4_Va_O3167,-2.0,-1.9740958271826623,-1.9740958271826623,0.9870479135913311,-2.356834901289411,9.971944969863443
1628,CaO,CaO_Va_O1,3.5479,-3.3060156124999995,1.0,1.2018086062036886,7.691605040000022,0,63,CaO_Va_O163,-2.0,-1.6241346564868904,-1.6241346564868904,0.8120673282434452,-3.2905001259273035,8.949205075164716
1631,CaO,CaO_Va_O1,3.5479,-3.3060156124999995,1.0,1.2018086062036886,5.058042836377056,1,63,CaO_Va_O163,-2.0,-1.6241346564868904,-1.6241346564868904,0.8120673282434452,-3.2905001259273035,8.949205075164716
1634,CaO,CaO_Va_O1,3.5479,-3.3060156124999995,1.0,1.2018086062036886,3.9617531909655592,2,63,CaO_Va_O163,-2.0,-1.6241346564868904,-1.6241346564868904,0.8120673282434452,-3.2905001259273035,8.949205075164716
1637,CaSn(BO3)2,CaSn(BO3)2_Va_O1,3.9172,-2.8374268643333345,2.320355363013704,2.7976208853270426,5.967561989999817,0,269,CaSn(BO3)2_Va_O1269,-2.0,-1.9840759182316603,-1.9840759182316603,0.99203795911583,-1.538575818365933,9.58400831522915
1640,CaSn(BO3)2,CaSn(BO3)2_Va_O1,3.9172,-2.8374268643333345,2.320355363013704,2.7976208853270426,3.8710878945714136,1,269,CaSn(BO3)2_Va_O1269,-2.0,-1.9840759182316603,-1.9840759182316603,0.99203795911583,-1.538575818365933,9.58400831522915
1643,CaSn(BO3)2,CaSn(BO3)2_Va_O1,3.9172,-2.8374268643333345,2.320355363013704,2.7976208853270426,0.3361730083092665,2,269,CaSn(BO3)2_Va_O1269,-2.0,-1.9840759182316603,-1.9840759182316603,0.99203795911583,-1.538575818365933,9.58400831522915
1646,CaSnO3,CaSnO3_Va_O1,3.068,-2.6796842760000006,2.1469451706387996,1.633967709954644,5.165658959999869,0,269,CaSnO3_Va_O1269,-2.0,-1.8836882087236793,-1.8836882087236793,0.9418441043618396,-1.538575818365933,7.95753938837732
1649,CaSnO3,CaSnO3_Va_O1,3.068,-2.6796842760000006,2.1469451706387996,1.633967709954644,3.206365027120409,1,269,CaSnO3_Va_O1269,-2.0,-1.8836882087236793,-1.8836882087236793,0.9418441043618396,-1.538575818365933,7.95753938837732
1652,CaSnO3,CaSnO3_Va_O1,3.068,-2.6796842760000006,2.1469451706387996,1.633967709954644,1.37999702968719,2,269,CaSnO3_Va_O1269,-2.0,-1.8836882087236793,-1.8836882087236793,0.9418441043618396,-1.538575818365933,7.95753938837732
1655,Cs12Sn2As6O,Cs12Sn2As6O_Va_O1,0.7696000000000001,-0.5198922095320198,0.791201310070498,1.0869989535004008,3.348314579838651,1,335,Cs12Sn2As6O_Va_O1335,-2.0,-1.6389330434873877,-1.6389330434873877,0.8194665217436938,-1.538575818365933,6.3869526143232624
1657,Cs12Sn2As6O,Cs12Sn2As6O_Va_O1,0.7696000000000001,-0.5198922095320198,0.791201310070498,1.0869989535004008,3.086143719693084,2,335,Cs12Sn2As6O_Va_O1335,-2.0,-1.6389330434873877,-1.6389330434873877,0.8194665217436938,-1.538575818365933,6.3869526143232624
1659,Cs2Al2As2O7,Cs2Al2As2O7_Va_O1,3.5767,-2.50447628698939,1.9824255200641765,3.0897262460855073,5.426251129999978,0,287,Cs2Al2As2O7_Va_O1287,-2.0,-1.8949592219615865,-1.8949592219615865,0.9474796109807933,-1.150088447140494,5.7787150905517475
1662,Cs2Al2As2O7,Cs2Al2As2O7_Va_O1,3.5767,-2.50447628698939,1.9824255200641765,3.0897262460855073,3.0527235554773995,1,287,Cs2Al2As2O7_Va_O1287,-2.0,-1.8949592219615865,-1.8949592219615865,0.9474796109807933,-1.150088447140494,5.7787150905517475