,formula,full_name,band_gap,formation_energy,nn_ave_eleneg,o2p_center_from_vbm,vacancy_formation_energy,charge,vacancy_index,merge_on,valence,bv_sum_Crystal,bv_sum_nn,BVS_ratio,vr_max,Eb_sum
472,Ba2MgSi2O7,Ba2MgSi2O7_Va_O3,4.5151,-3.3661644154166668,2.106248918227482,3.463631557818279,1.433671330629214,2,263,Ba2MgSi2O7_Va_O3263,-2.0,-2.131049333662416,-2.605886876794828,1.065524666831208,-2.356834901289411,10.266763383596116
475,Ba2PbO4,Ba2PbO4_Va_O1,1.3264000000000002,-2.3690410357142855,2.0753768308760643,1.748229577366927,-0.2583727280988024,2,89,Ba2PbO4_Va_O189,-2.0,-2.2204128733360973,-2.2204128733360973,1.1102064366680486,-0.2712847561180753,11.263526982990701
476,Ba2PbO4,Ba2PbO4_Va_O2,1.3264000000000002,-2.3690410357142855,1.7175282197657022,1.0928715865474945,0.3645292612183823,2,125,Ba2PbO4_Va_O2125,-2.0,-1.5935230361623385,-1.252482981282976,0.7967615180811691,-0.2712847561180753,8.097523530067402
477,Ba2SiO4,Ba2SiO4_Va_O1,4.7691,-3.3619786003571424,1.8187115337578652,1.9887997780759203,6.5052005399997,0,239,Ba2SiO4_Va_O1239,-2.0,-1.1915023921211203,-1.9057345211248344,0.5957511960605603,-2.356834901289411,2.8701524966277803
479,Ba2SiO4,Ba2SiO4_Va_O1,4.7691,-3.3619786003571424,1.8187115337578652,1.9887997780759203,4.235587240038342,1,239,Ba2SiO4_Va_O1239,-2.0,-1.1915023921211203,-1.9057345211248344,0.5957511960605603,-2.356834901289411,2.8701524966277803
481,Ba2SiO4,Ba2SiO4_Va_O2,4.7691,-3.3619786003571424,1.7501702673414408,2.0510531204351756,6.6043048999998835,0,287,Ba2SiO4_Va_O2287,-2.0,-1.134489297277386,-1.97581363448099,0.567244648638693,-2.356834901289411,2.7328164093582323
484,Ba2SiO4,Ba2SiO4_Va_O2,4.7691,-3.3619786003571424,1.7501702673414408,2.0510531204351756,4.212611026593015,1,287,Ba2SiO4_Va_O2287,-2.0,-1.134489297277386,-1.97581363448099,0.567244648638693,-2.356834901289411,2.7328164093582323
487,Ba2SiO4,Ba2SiO4_Va_O2,4.7691,-3.3619786003571424,1.7501702673414408,2.0510531204351756,2.324037813919991,2,287,Ba2SiO4_Va_O2287,-2.0,-1.134489297277386,-1.97581363448099,0.567244648638693,-2.356834901289411,2.7328164093582323
490,Ba2SiO4,Ba2SiO4_Va_O3,4.7691,-3.3619786003571424,1.9140223485049568,1.8462819252227711,6.422328049999928,0,335,Ba2SiO4_Va_O3335,-2.0,-1.211835767729989,-1.7489394644004896,0.6059178838649945,-2.356834901289411,2.919132581900435
493,Ba2SiO4,Ba2SiO4_Va_O3,4.7691,-3.3619786003571424,1.9140223485049568,1.8462819252227711,4.28690146859809,1,335,Ba2SiO4_Va_O3335,-2.0,-1.211835767729989,-1.7489394644004896,0.6059178838649945,-2.356834901289411,2.919132581900435
496,Ba2SiO4,Ba2SiO4_Va_O3,4.7691,-3.3619786003571424,1.9140223485049568,1.8462819252227711,2.648694819059999,2,335,Ba2SiO4_Va_O3335,-2.0,-1.211835767729989,-1.7489394644004896,0.6059178838649945,-2.356834901289411,2.919132581900435
499,Ba2SnO4,Ba2SnO4_Va_O1,2.6748,-2.7252458707142857,1.5846067414973888,1.2392503518767148,5.100413910000052,0,89,Ba2SnO4_Va_O189,-2.0,-1.5683576609342025,-1.5683576609342025,0.7841788304671011,-1.538575818365933,8.525289404887387
502,Ba2SnO4,Ba2SnO4_Va_O1,2.6748,-2.7252458707142857,1.5846067414973888,1.2392503518767148,3.469444126802393,1,89,Ba2SnO4_Va_O189,-2.0,-1.5683576609342025,-1.5683576609342025,0.7841788304671011,-1.538575818365933,8.525289404887387
505,Ba2SnO4,Ba2SnO4_Va_O1,2.6748,-2.7252458707142857,1.5846067414973888,1.2392503518767148,1.8050454193369556,2,89,Ba2SnO4_Va_O189,-2.0,-1.5683576609342025,-1.5683576609342025,0.7841788304671011,-1.538575818365933,8.525289404887387
508,Ba2SnO4,Ba2SnO4_Va_O2,2.6748,-2.7252458707142857,2.0113911022161712,2.0533727474190098,4.832842359999981,0,125,Ba2SnO4_Va_O2125,-2.0,-2.0692600166087587,-2.0692600166087582,1.0346300083043791,-1.538575818365933,11.962983417458087
511,Ba2SnO4,Ba2SnO4_Va_O2,2.6748,-2.7252458707142857,2.0113911022161712,2.0533727474190098,2.896080656437488,1,125,Ba2SnO4_Va_O2125,-2.0,-2.0692600166087587,-2.0692600166087582,1.0346300083043791,-1.538575818365933,11.962983417458087
514,Ba2SnO4,Ba2SnO4_Va_O2,2.6748,-2.7252458707142857,2.0113911022161712,2.0533727474190098,0.8231386704460488,2,125,Ba2SnO4_Va_O2125,-2.0,-2.0692600166087587,-2.0692600166087582,1.0346300083043791,-1.538575818365933,11.962983417458087
517,Ba3(AsO4)2,Ba3(AsO4)2_Va_O1,4.0672999999999995,-2.691978154615385,2.3065525755656915,1.8664497423710813,3.449726650000125,0,188,Ba3(AsO4)2_Va_O1188,-2.0,-1.896434994088967,-1.896434994088967,0.9482174970444835,-0.6589084382122885,4.30717601775666
520,Ba3(AsO4)2,Ba3(AsO4)2_Va_O1,4.0672999999999995,-2.691978154615385,2.3065525755656915,1.8664497423710813,2.0707177023951724,1,188,Ba3(AsO4)2_Va_O1188,-2.0,-1.896434994088967,-1.896434994088967,0.9482174970444835,-0.6589084382122885,4.30717601775666
523,Ba3(AsO4)2,Ba3(AsO4)2_Va_O1,4.0672999999999995,-2.691978154615385,2.3065525755656915,1.8664497423710813,0.6177095365547689,2,188,Ba3(AsO4)2_Va_O1188,-2.0,-1.896434994088967,-1.896434994088967,0.9482174970444835,-0.6589084382122885,4.30717601775666
526,Ba3(AsO4)2,Ba3(AsO4)2_Va_O2,4.0672999999999995,-2.691978154615385,2.1447896290114725,2.1236025483072396,3.5821794299998917,0,350,Ba3(AsO4)2_Va_O2350,-2.0,-1.413735477158416,-2.122364002358811,0.706867738579208,-0.6589084382122885,2.0114744603295773
529,Ba3(AsO4)2,Ba3(AsO4)2_Va_O2,4.0672999999999995,-2.691978154615385,2.1447896290114725,2.1236025483072396,1.8669060505856945,1,350,Ba3(AsO4)2_Va_O2350,-2.0,-1.413735477158416,-2.122364002358811,0.706867738579208,-0.6589084382122885,2.0114744603295773
532,Ba3(AsO4)2,Ba3(AsO4)2_Va_O2,4.0672999999999995,-2.691978154615385,2.1447896290114725,2.1236025483072396,-0.3533348416206163,2,350,Ba3(AsO4)2_Va_O2350,-2.0,-1.413735477158416,-2.122364002358811,0.706867738579208,-0.6589084382122885,2.0114744603295773
535,Ba3BAsO3,Ba3BAsO3_Va_O1,1.3583999999999996,-2.534398749895834,1.6149249046865122,4.4286946347426905,6.90738707999993,0,143,Ba3BAsO3_Va_O1143,-2.0,-1.9574664295017463,-1.957466429501746,0.9787332147508732,-2.1905056483979153,11.963630587082918
537,Ba3BAsO3,Ba3BAsO3_Va_O1,1.3583999999999996,-2.534398749895834,1.6149249046865122,4.4286946347426905,4.129596727145335,1,143,Ba3BAsO3_Va_O1143,-2.0,-1.9574664295017463,-1.957466429501746,0.9787332147508732,-2.1905056483979153,11.963630587082918
539,Ba3In2O6,Ba3In2O6_Va_O1,0.8739999999999997,-2.5032603363636365,1.5027520609857827,1.366161739848722,1.936059858395203,2,251,Ba3In2O6_Va_O1251,-2.0,-1.4110255350426104,-0.9923428726467268,0.7055127675213052,-1.5993795332042406,7.304575750242044
540,Ba3In2O6,Ba3In2O6_Va_O2,0.8739999999999997,-2.5032603363636365,1.7745734882720745,1.703999515715251,0.9173435266688263,2,395,Ba3In2O6_Va_O2395,-2.0,-1.5496737464951515,-1.3404411158582854,0.7748368732475758,-1.5993795332042406,8.15630766665803
541,Ba3MgSb2O9,Ba3MgSb2O9_Va_O1,2.8573,-2.6995449040000006,1.9848146738019936,1.9514056810206264,4.079700650000072,0,215,Ba3MgSb2O9_Va_O1215,-2.0,-1.5228825909601655,-2.0431152491406475,0.7614412954800828,-0.5208045461292565,3.1493396471184774
544,Ba3MgSb2O9,Ba3MgSb2O9_Va_O1,2.8573,-2.6995449040000006,1.9848146738019936,1.9514056810206264,2.715134764687093,1,215,Ba3MgSb2O9_Va_O1215,-2.0,-1.5228825909601655,-2.0431152491406475,0.7614412954800828,-0.5208045461292565,3.1493396471184774
547,Ba3MgSb2O9,Ba3MgSb2O9_Va_O1,2.8573,-2.6995449040000006,1.9848146738019936,1.9514056810206264,1.307873987870921,2,215,Ba3MgSb2O9_Va_O1215,-2.0,-1.5228825909601655,-2.0431152491406475,0.7614412954800828,-0.5208045461292565,3.1493396471184774
550,Ba3MgSb2O9,Ba3MgSb2O9_Va_O2,2.8573,-2.6995449040000006,2.175411893660774,2.4586944447654595,4.872961969999901,0,269,Ba3MgSb2O9_Va_O2269,-2.0,-2.017593472188687,-2.017593472188687,1.0087967360943435,-0.5208045461292565,11.712907924003112
553,Ba3MgSb2O9,Ba3MgSb2O9_Va_O2,2.8573,-2.6995449040000006,2.175411893660774,2.4586944447654595,2.3396284437922903,1,269,Ba3MgSb2O9_Va_O2269,-2.0,-2.017593472188687,-2.017593472188687,1.0087967360943435,-0.5208045461292565,11.712907924003112
556,Ba3MgSb2O9,Ba3MgSb2O9_Va_O2,2.8573,-2.6995449040000006,2.175411893660774,2.4586944447654595,0.0457811021316323,2,269,Ba3MgSb2O9_Va_O2269,-2.0,-2.017593472188687,-2.017593472188687,1.0087967360943435,-0.5208045461292565,11.712907924003112
568,Ba3NaSbO6,Ba3NaSbO6_Va_O1,2.9642000000000004,-2.6506075655956116,1.60049408398836,1.6275298086607983,4.966529190000026,0,65,Ba3NaSbO6_Va_O165,-2.0,-1.9244665536496928,-1.9244665536496928,0.9622332768248464,-0.5208045461292565,9.949457063365138
571,Ba3NaSbO6,Ba3NaSbO6_Va_O1,2.9642000000000004,-2.6506075655956116,1.60049408398836,1.6275298086607983,3.311215929792404,1,65,Ba3NaSbO6_Va_O165,-2.0,-1.9244665536496928,-1.9244665536496928,0.9622332768248464,-0.5208045461292565,9.949457063365138
574,Ba3NaSbO6,Ba3NaSbO6_Va_O1,2.9642000000000004,-2.6506075655956116,1.60049408398836,1.6275298086607983,1.767963883778576,2,65,Ba3NaSbO6_Va_O165,-2.0,-1.9244665536496928,-1.9244665536496928,0.9622332768248464,-0.5208045461292565,9.949457063365138
577,Ba3Sn2O7,Ba3Sn2O7_Va_O1,1.8136,-2.668890004166667,2.0470090583045017,2.0293343475276915,4.778640149999669,0,395,Ba3Sn2O7_Va_O1395,-2.0,-2.016642530376057,-2.016642530376057,1.0083212651880284,-1.538575818365933,11.658786694853
580,Ba3Sn2O7,Ba3Sn2O7_Va_O1,1.8136,-2.668890004166667,2.0470090583045017,2.0293343475276915,2.8204709785714357,1,395,Ba3Sn2O7_Va_O1395,-2.0,-2.016642530376057,-2.016642530376057,1.0083212651880284,-1.538575818365933,11.658786694853
583,Ba3Sn2O7,Ba3Sn2O7_Va_O1,1.8136,-2.668890004166667,2.0470090583045017,2.0293343475276915,0.9183590303185518,2,395,Ba3Sn2O7_Va_O1395,-2.0,-2.016642530376057,-2.016642530376057,1.0083212651880284,-1.538575818365933,11.658786694853
586,Ba3Sn2O7,Ba3Sn2O7_Va_O2,1.8136,-2.668890004166667,1.5845935952348356,1.2995311952614723,4.901047939999794,0,323,Ba3Sn2O7_Va_O2323,-2.0,-1.587102058359532,-1.587102058359532,0.7935510291797659,-1.538575818365933,8.627180329866817
589,Ba3Sn2O7,Ba3Sn2O7_Va_O2,1.8136,-2.668890004166667,1.5845935952348356,1.2995311952614723,3.3501182097964772,1,323,Ba3Sn2O7_Va_O2323,-2.0,-1.587102058359532,-1.587102058359532,0.7935510291797659,-1.538575818365933,8.627180329866817
592,Ba3Sn2O7,Ba3Sn2O7_Va_O2,1.8136,-2.668890004166667,1.5845935952348356,1.2995311952614723,1.8672103080387077,2,323,Ba3Sn2O7_Va_O2323,-2.0,-1.587102058359532,-1.587102058359532,0.7935510291797659,-1.538575818365933,8.627180329866817
595,Ba3Sn2O7,Ba3Sn2O7_Va_O3,1.8136,-2.668890004166667,2.126196563023328,1.854566969926319,4.604860199999971,0,431,Ba3Sn2O7_Va_O3431,-2.0,-1.3546873673005688,-1.8931550125587824,0.6773436836502844,-1.538575818365933,3.234632658724203
597,Ba3Sn2O7,Ba3Sn2O7_Va_O3,1.8136,-2.668890004166667,2.126196563023328,1.854566969926319,0.8958231037631008,2,431,Ba3Sn2O7_Va_O3431,-2.0,-1.3546873673005688,-1.8931550125587824,0.6773436836502844,-1.538575818365933,3.234632658724203
599,Ba4InSbO8,Ba4InSbO8_Va_O1,2.4993,-2.680420198571428,1.9916364837862472,2.2239251111901437,4.448640730000088,0,79,Ba4InSbO8_Va_O179,-2.0,-2.116619377952137,-2.1166193779521363,1.0583096889760686,-0.5208045461292565,11.714035552908152
602,Ba4InSbO8,Ba4InSbO8_Va_O1,2.4993,-2.680420198571428,1.9916364837862472,2.2239251111901437,2.5621920291624036,1,79,Ba4InSbO8_Va_O179,-2.0,-2.116619377952137,-2.1166193779521363,1.0583096889760686,-0.5208045461292565,11.714035552908152
605,Ba4InSbO8,Ba4InSbO8_Va_O1,2.4993,-2.680420198571428,1.9916364837862472,2.2239251111901437,0.630014373342179,2,79,Ba4InSbO8_Va_O179,-2.0,-2.116619377952137,-2.1166193779521363,1.0583096889760686,-0.5208045461292565,11.714035552908152
608,Ba4InSbO8,Ba4InSbO8_Va_O2,2.4993,-2.680420198571428,1.530581381110401,0.9270727729243128,4.702469990000063,0,111,Ba4InSbO8_Va_O2111,-2.0,-1.393359205004792,-1.3933592050047925,0.696679602502396,-0.5208045461292565,7.21312095882601
611,Ba4InSbO8,Ba4InSbO8_Va_O2,2.4993,-2.680420198571428,1.530581381110401,0.9270727729243128,3.3038099903887277,1,111,Ba4InSbO8_Va_O2111,-2.0,-1.393359205004792,-1.3933592050047925,0.696679602502396,-0.5208045461292565,7.21312095882601
614,Ba4InSbO8,Ba4InSbO8_Va_O2,2.4993,-2.680420198571428,1.530581381110401,0.9270727729243128,2.054703029760384,2,111,Ba4InSbO8_Va_O2111,-2.0,-1.393359205004792,-1.3933592050047925,0.696679602502396,-0.5208045461292565,7.21312095882601
617,Ba4InSbO8,Ba4InSbO8_Va_O3,2.4993,-2.680420198571428,1.6498545884672875,1.6991889291753073,4.865271070000071,0,103,Ba4InSbO8_Va_O3103,-2.0,-1.7054816690251786,-1.7054816690251788,0.8527408345125893,-0.5208045461292565,9.291219903291829
620,Ba4InSbO8,Ba4InSbO8_Va_O3,2.4993,-2.680420198571428,1.6498545884672875,1.6991889291753073,3.1918913400319076,1,103,Ba4InSbO8_Va_O3103,-2.0,-1.7054816690251786,-1.7054816690251788,0.8527408345125893,-0.5208045461292565,9.291219903291829
623,Ba4InSbO8,Ba4InSbO8_Va_O3,2.4993,-2.680420198571428,1.6498545884672875,1.6991889291753073,1.4322492765011083,2,103,Ba4InSbO8_Va_O3103,-2.0,-1.7054816690251786,-1.7054816690251788,0.8527408345125893,-0.5208045461292565,9.291219903291829
626,Ba4Li(SbO4)3,Ba4Li(SbO4)3_Va_O1,1.6418,-2.5572898346666664,2.166183804459811,2.58790649360424,4.403944009999927,0,319,Ba4Li(SbO4)3_Va_O1319,-2.0,-1.6342201246336108,-2.2182600640713823,0.8171100623168054,-0.5208045461292565,3.9414667880178498
628,Ba4Li(SbO4)3,Ba4Li(SbO4)3_Va_O1,1.6418,-2.5572898346666664,2.166183804459811,2.58790649360424,-0.0743969359409248,2,319,Ba4Li(SbO4)3_Va_O1319,-2.0,-1.6342201246336108,-2.2182600640713823,0.8171100623168054,-0.5208045461292565,3.9414667880178498
630,Ba4Li(SbO4)3,Ba4Li(SbO4)3_Va_O2,1.6418,-2.5572898346666664,1.915164915208084,1.7660262731657763,2.8620879700000703,0,239,Ba4Li(SbO4)3_Va_O2239,-2.0,-1.386591239381226,-1.9643459517260915,0.6932956196906129,-0.5208045461292565,2.716979126935593
633,Ba4Li(SbO4)3,Ba4Li(SbO4)3_Va_O2,1.6418,-2.5572898346666664,1.915164915208084,1.7660262731657763,1.9244263429851125,1,239,Ba4Li(SbO4)3_Va_O2239,-2.0,-1.386591239381226,-1.9643459517260915,0.6932956196906129,-0.5208045461292565,2.716979126935593
636,Ba4Li(SbO4)3,Ba4Li(SbO4)3_Va_O2,1.6418,-2.5572898346666664,1.915164915208084,1.7660262731657763,0.6950853717125494,2,239,Ba4Li(SbO4)3_Va_O2239,-2.0,-1.386591239381226,-1.9643459517260915,0.6932956196906129,-0.5208045461292565,2.716979126935593
639,Ba4Na(SbO4)3,Ba4Na(SbO4)3_Va_O1,1.7089,-2.540505563827586,1.9024428441463583,1.808297026120643,3.1420895699997207,0,223,Ba4Na(SbO4)3_Va_O1223,-2.0,-1.6124442463927666,-2.152490275875963,0.8062221231963833,-0.5208045461292565,2.8643939326806604
642,Ba4Na(SbO4)3,Ba4Na(SbO4)3_Va_O1,1.7089,-2.540505563827586,1.9024428441463583,1.808297026120643,2.132683812555258,1,223,Ba4Na(SbO4)3_Va_O1223,-2.0,-1.6124442463927666,-2.152490275875963,0.8062221231963833,-0.5208045461292565,2.8643939326806604
645,Ba4Na(SbO4)3,Ba4Na(SbO4)3_Va_O1,1.7089,-2.540505563827586,1.9024428441463583,1.808297026120643,0.8845503698244732,2,223,Ba4Na(SbO4)3_Va_O1223,-2.0,-1.6124442463927666,-2.152490275875963,0.8062221231963833,-0.5208045461292565,2.8643939326806604
648,Ba4Na(SbO4)3,Ba4Na(SbO4)3_Va_O2,1.7089,-2.540505563827586,2.1732145330654524,2.4275878382202305,4.815045780000114,0,319,Ba4Na(SbO4)3_Va_O2319,-2.0,-1.5629851167724578,-2.1113497499493277,0.7814925583862289,-0.5208045461292565,3.7696598120807043
650,Ba4Na(SbO4)3,Ba4Na(SbO4)3_Va_O2,1.7089,-2.540505563827586,2.1732145330654524,2.4275878382202305,-0.0490413324266842,2,319,Ba4Na(SbO4)3_Va_O2319,-2.0,-1.5629851167724578,-2.1113497499493277,0.7814925583862289,-0.5208045461292565,3.7696598120807043
652,BaAl2Sb2O7,BaAl2Sb2O7_Va_O1,3.2695000000000003,-2.7688808362499993,2.2435777396880376,2.6281136891435875,5.310194620000297,0,323,BaAl2Sb2O7_Va_O1323,-2.0,-2.1124528323696468,-2.1124528323696463,1.0562264161848234,-1.2369755737418262,8.251982385488391
655,BaAl2Sb2O7,BaAl2Sb2O7_Va_O1,3.2695000000000003,-2.7688808362499993,2.2435777396880376,2.6281136891435875,3.3069836100027565,1,323,BaAl2Sb2O7_Va_O1323,-2.0,-2.1124528323696468,-2.1124528323696463,1.0562264161848234,-1.2369755737418262,8.251982385488391
658,BaAl2Sb2O7,BaAl2Sb2O7_Va_O1,3.2695000000000003,-2.7688808362499993,2.2435777396880376,2.6281136891435875,1.2891213620893254,2,323,BaAl2Sb2O7_Va_O1323,-2.0,-2.1124528323696468,-2.1124528323696463,1.0562264161848234,-1.2369755737418262,8.251982385488391
661,BaAl2Sb2O7,BaAl2Sb2O7_Va_O2,3.2695000000000003,-2.7688808362499993,2.0252082817286667,2.0265908320338952,6.196058079999952,0,296,BaAl2Sb2O7_Va_O2296,-2.0,-1.841828763608873,-1.841828763608873,0.9209143818044364,-1.2369755737418262,4.903471021910545
664,BaAl2Sb2O7,BaAl2Sb2O7_Va_O2,3.2695000000000003,-2.7688808362499993,2.0252082817286667,2.0265908320338952,4.667804569419321,1,296,BaAl2Sb2O7_Va_O2296,-2.0,-1.841828763608873,-1.841828763608873,0.9209143818044364,-1.2369755737418262,4.903471021910545
667,BaAl2Sb2O7,BaAl2Sb2O7_Va_O2,3.2695000000000003,-2.7688808362499993,2.0252082817286667,2.0265908320338952,2.6202542499326724,2,296,BaAl2Sb2O7_Va_O2296,-2.0,-1.841828763608873,-1.841828763608873,0.9209143818044364,-1.2369755737418262,4.903471021910545
670,BaBAsO5,BaBAsO5_Va_O1,3.5195000000000003,-2.627202876979167,2.314820248364252,3.325612670939345,7.149827729999865,0,95,BaBAsO5_Va_O195,-2.0,-1.591065375790957,-1.591065375790957,0.7955326878954785,-0.6589084382122885,8.649799682652183
673,BaBAsO5,BaBAsO5_Va_O1,3.5195000000000003,-2.627202876979167,2.314820248364252,3.325612670939345,3.758958859010048,1,95,BaBAsO5_Va_O195,-2.0,-1.591065375790957,-1.591065375790957,0.7955326878954785,-0.6589084382122885,8.649799682652183
676,BaBAsO5,BaBAsO5_Va_O1,3.5195000000000003,-2.627202876979167,2.314820248364252,3.325612670939345,-0.4479926754729546,2,95,BaBAsO5_Va_O195,-2.0,-1.591065375790957,-1.591065375790957,0.7955326878954785,-0.6589084382122885,8.649799682652183
679,BaBAsO5,BaBAsO5_Va_O2,3.5195000000000003,-2.627202876979167,2.462879653860159,2.555301697807783,2.7482999799998513,0,167,BaBAsO5_Va_O2167,-2.0,-2.1993673575776613,-2.1993673575776613,1.0996836787888309,-0.6589084382122885,6.861111763020933
680,BaBAsO5,BaBAsO5_Va_O3,3.5195000000000003,-2.627202876979167,2.37488640200072,3.847976673389996,3.7398381599999855,0,191,BaBAsO5_Va_O3191,-2.0,-1.8959484860541331,-2.177834743972006,0.9479742430270666,-0.6589084382122885,7.851216840631842
683,BaBAsO5,BaBAsO5_Va_O3,3.5195000000000003,-2.627202876979167,2.37488640200072,3.847976673389996,1.2019807495419954,1,191,BaBAsO5_Va_O3191,-2.0,-1.8959484860541331,-2.177834743972006,0.9479742430270666,-0.6589084382122885,7.851216840631842
686,BaBAsO5,BaBAsO5_Va_O3,3.5195000000000003,-2.627202876979167,2.37488640200072,3.847976673389996,-1.980413126599892,2,191,BaBAsO5_Va_O3191,-2.0,-1.8959484860541331,-2.177834743972006,0.9479742430270666,-0.6589084382122885,7.851216840631842
689,BaBe2(BO3)2,BaBe2(BO3)2_Va_O1,5.462999999999999,-3.120560989848485,1.9875133667322735,3.296243841007387,7.256117159999926,0,167,BaBe2(BO3)2_Va_O1167,-2.0,-1.8331662062780651,-1.8331662062780651,0.9165831031390326,-2.1905056483979153,10.590637305277905
692,BaBe2(BO3)2,BaBe2(BO3)2_Va_O1,5.462999999999999,-3.120560989848485,1.9875133667322735,3.296243841007387,4.106433055790997,1,167,BaBe2(BO3)2_Va_O1167,-2.0,-1.8331662062780651,-1.8331662062780651,0.9165831031390326,-2.1905056483979153,10.590637305277905
695,BaBe2(BO3)2,BaBe2(BO3)2_Va_O1,5.462999999999999,-3.120560989848485,1.9875133667322735,3.296243841007387,0.5843381463018886,2,167,BaBe2(BO3)2_Va_O1167,-2.0,-1.8331662062780651,-1.8331662062780651,0.9165831031390326,-2.1905056483979153,10.590637305277905
698,BaBe2(BO3)2,BaBe2(BO3)2_Va_O2,5.462999999999999,-3.120560989848485,1.972611280803404,2.6692977679936583,7.1244056399999725,0,175,BaBe2(BO3)2_Va_O2175,-2.0,-1.517665046228286,-1.8769692211267504,0.7588325231141431,-2.1905056483979153,6.446646032961334
700,BaBe2(BO3)2,BaBe2(BO3)2_Va_O2,5.462999999999999,-3.120560989848485,1.972611280803404,2.6692977679936583,4.659700585819075,1,175,BaBe2(BO3)2_Va_O2175,-2.0,-1.517665046228286,-1.8769692211267504,0.7588325231141431,-2.1905056483979153,6.446646032961334