,formula,full_name,band_gap,formation_energy,nn_ave_eleneg,o2p_center_from_vbm,vacancy_formation_energy,charge,vacancy_index,merge_on,valence,bv_sum_Crystal,bv_sum_nn,BVS_ratio,vr_max,Eb_sum
1892,Cs2PbO3,Cs2PbO3_Va_O2,1.4961,-1.5408556518103451,1.7935254477273914,1.5928734516564451,1.455164739397054,1,431,Cs2PbO3_Va_O2431,-2.0,-1.8747783012519628,-1.5843602638528766,0.9373891506259814,-0.2712847561180753,8.018760050033173
1895,Cs2PbO3,Cs2PbO3_Va_O2,1.4961,-1.5408556518103451,1.7935254477273914,1.5928734516564451,0.1886966471428559,2,431,Cs2PbO3_Va_O2431,-2.0,-1.8747783012519628,-1.5843602638528766,0.9373891506259814,-0.2712847561180753,8.018760050033173
1898,Cs2Sn(GeO3)3,Cs2Sn(GeO3)3_Va_O1,2.6502,-2.1657504797241387,2.1090346478552253,2.804268136395372,4.208312760000021,0,71,Cs2Sn(GeO3)3_Va_O171,-2.0,-1.805454672321228,-1.805454672321228,0.902727336160614,-1.502819088333178,6.798112940811443
1901,Cs2Sn(GeO3)3,Cs2Sn(GeO3)3_Va_O1,2.6502,-2.1657504797241387,2.1090346478552253,2.804268136395372,1.9149189614241937,1,71,Cs2Sn(GeO3)3_Va_O171,-2.0,-1.805454672321228,-1.805454672321228,0.902727336160614,-1.502819088333178,6.798112940811443
1904,Cs2Sn(GeO3)3,Cs2Sn(GeO3)3_Va_O1,2.6502,-2.1657504797241387,2.1090346478552253,2.804268136395372,-0.2941571472115205,2,71,Cs2Sn(GeO3)3_Va_O171,-2.0,-1.805454672321228,-1.805454672321228,0.902727336160614,-1.502819088333178,6.798112940811443
1907,Cs2Sn(GeO3)3,Cs2Sn(GeO3)3_Va_O2,2.6502,-2.1657504797241387,2.306198702057431,2.0221188404292767,3.8984446300000943,0,119,Cs2Sn(GeO3)3_Va_O2119,-2.0,-1.7964906626812234,-1.7964906626812234,0.8982453313406117,-1.502819088333178,5.526950926593008
1910,Cs2Sn(GeO3)3,Cs2Sn(GeO3)3_Va_O2,2.6502,-2.1657504797241387,2.306198702057431,2.0221188404292767,2.5164024416181174,1,119,Cs2Sn(GeO3)3_Va_O2119,-2.0,-1.7964906626812234,-1.7964906626812234,0.8982453313406117,-1.502819088333178,5.526950926593008
1913,Cs2Sn(GeO3)3,Cs2Sn(GeO3)3_Va_O2,2.6502,-2.1657504797241387,2.306198702057431,2.0221188404292767,1.4107342519932344,2,119,Cs2Sn(GeO3)3_Va_O2119,-2.0,-1.7964906626812234,-1.7964906626812234,0.8982453313406117,-1.502819088333178,5.526950926593008
1916,Cs2SnO3,Cs2SnO3_Va_O1,2.5588999999999995,-1.9013199843103443,1.7187298013467722,1.8796787826834027,4.551719139999827,0,431,Cs2SnO3_Va_O1431,-2.0,-1.7920597902337378,-1.31513055243076,0.8960298951168689,-1.538575818365933,8.934755125671934
1919,Cs2SnO3,Cs2SnO3_Va_O1,2.5588999999999995,-1.9013199843103443,1.7187298013467722,1.8796787826834027,2.5972104927769593,1,431,Cs2SnO3_Va_O1431,-2.0,-1.7920597902337378,-1.31513055243076,0.8960298951168689,-1.538575818365933,8.934755125671934
1922,Cs2SnO3,Cs2SnO3_Va_O1,2.5588999999999995,-1.9013199843103443,1.7187298013467722,1.8796787826834027,0.6592790265490731,2,431,Cs2SnO3_Va_O1431,-2.0,-1.7920597902337378,-1.31513055243076,0.8960298951168689,-1.538575818365933,8.934755125671934
1925,Cs2SnO3,Cs2SnO3_Va_O2,2.5588999999999995,-1.9013199843103443,1.3977195288843,0.925032086120494,3.603359599999644,0,359,Cs2SnO3_Va_O2359,-2.0,-1.0077671945416151,-1.3570711042374457,0.5038835972708076,-1.538575818365933,1.2031398382162382
1928,Cs2SnO3,Cs2SnO3_Va_O2,2.5588999999999995,-1.9013199843103443,1.3977195288843,0.925032086120494,2.958510337604378,1,359,Cs2SnO3_Va_O2359,-2.0,-1.0077671945416151,-1.3570711042374457,0.5038835972708076,-1.538575818365933,1.2031398382162382
1931,Cs2SnO3,Cs2SnO3_Va_O2,2.5588999999999995,-1.9013199843103443,1.3977195288843,0.925032086120494,2.698343604647466,2,359,Cs2SnO3_Va_O2359,-2.0,-1.0077671945416151,-1.3570711042374457,0.5038835972708076,-1.538575818365933,1.2031398382162382
1934,Cs3AlGe2O7,Cs3AlGe2O7_Va_O1,3.4095000000000004,-2.4081763991379304,1.9252445318793197,2.5750699471893874,4.827763529999979,0,175,Cs3AlGe2O7_Va_O1175,-2.0,-1.7673188204558063,-1.7673188204558063,0.8836594102279032,-1.502819088333178,5.67981184569806
1936,Cs3AlGe2O7,Cs3AlGe2O7_Va_O1,3.4095000000000004,-2.4081763991379304,1.9252445318793197,2.5750699471893874,3.5355324578259104,1,175,Cs3AlGe2O7_Va_O1175,-2.0,-1.7673188204558063,-1.7673188204558063,0.8836594102279032,-1.502819088333178,5.67981184569806
1938,Cs3AlGe2O7,Cs3AlGe2O7_Va_O2,3.4095000000000004,-2.4081763991379304,1.8089711632458905,2.498280737212238,4.987124000000117,0,207,Cs3AlGe2O7_Va_O2207,-2.0,-1.7428212038555273,-1.7428212038555273,0.8714106019277637,-1.502819088333178,5.601081369143892
1941,Cs3AlGe2O7,Cs3AlGe2O7_Va_O2,3.4095000000000004,-2.4081763991379304,1.8089711632458905,2.498280737212238,3.2101693801689306,1,207,Cs3AlGe2O7_Va_O2207,-2.0,-1.7428212038555273,-1.7428212038555273,0.8714106019277637,-1.502819088333178,5.601081369143892
1944,Cs3AlGe2O7,Cs3AlGe2O7_Va_O2,3.4095000000000004,-2.4081763991379304,1.8089711632458905,2.498280737212238,1.4827814610477357,2,207,Cs3AlGe2O7_Va_O2207,-2.0,-1.7428212038555273,-1.7428212038555273,0.8714106019277637,-1.502819088333178,5.601081369143892
1947,Cs3AlGe2O7,Cs3AlGe2O7_Va_O3,3.4095000000000004,-2.4081763991379304,1.4559114432841045,1.1891952187838166,3.7672609200000218,0,199,Cs3AlGe2O7_Va_O3199,-2.0,-1.141253859033429,-1.3850899348013792,0.5706269295167143,-1.502819088333178,2.1485924700262355
1950,Cs3AlGe2O7,Cs3AlGe2O7_Va_O3,3.4095000000000004,-2.4081763991379304,1.4559114432841045,1.1891952187838166,3.200119019214755,1,199,Cs3AlGe2O7_Va_O3199,-2.0,-1.141253859033429,-1.3850899348013792,0.5706269295167143,-1.502819088333178,2.1485924700262355
1953,Cs3AlGe2O7,Cs3AlGe2O7_Va_O3,3.4095000000000004,-2.4081763991379304,1.4559114432841045,1.1891952187838166,2.030286705574687,2,199,Cs3AlGe2O7_Va_O3199,-2.0,-1.141253859033429,-1.3850899348013792,0.5706269295167143,-1.502819088333178,2.1485924700262355
1956,Cs3AlGe2O7,Cs3AlGe2O7_Va_O4,3.4095000000000004,-2.4081763991379304,1.92069500504883,2.8991416044971916,4.065247379999969,0,191,Cs3AlGe2O7_Va_O4191,-2.0,-1.7084351557593358,-1.7084351557593358,0.8542175778796679,-1.502819088333178,6.432803503160093
1958,Cs3AlGe2O7,Cs3AlGe2O7_Va_O4,3.4095000000000004,-2.4081763991379304,1.92069500504883,2.8991416044971916,1.1700700050771022,2,191,Cs3AlGe2O7_Va_O4191,-2.0,-1.7084351557593358,-1.7084351557593358,0.8542175778796679,-1.502819088333178,6.432803503160093
1960,Cs3AlO3,Cs3AlO3_Va_O1,2.5495,-2.1623344291133013,1.0787764553572217,1.0024672997306396,6.003346330000008,0,91,Cs3AlO3_Va_O191,-2.0,-0.7878234441130253,-1.1863948914938816,0.3939117220565126,-1.793018636425102,1.0487048266693089
1963,Cs3AlO3,Cs3AlO3_Va_O1,2.5495,-2.1623344291133013,1.0787764553572217,1.0024672997306396,4.551152806765132,1,91,Cs3AlO3_Va_O191,-2.0,-0.7878234441130253,-1.1863948914938816,0.3939117220565126,-1.793018636425102,1.0487048266693089
1966,Cs3AlO3,Cs3AlO3_Va_O1,2.5495,-2.1623344291133013,1.0787764553572217,1.0024672997306396,3.879985955266264,2,91,Cs3AlO3_Va_O191,-2.0,-0.7878234441130253,-1.1863948914938816,0.3939117220565126,-1.793018636425102,1.0487048266693089
1969,Cs3AlO3,Cs3AlO3_Va_O2,2.5495,-2.1623344291133013,1.301673256948105,2.018271449934742,6.672025369999924,0,107,Cs3AlO3_Va_O2107,-2.0,-1.271315977114255,-1.6412664942031974,0.6356579885571275,-1.793018636425102,3.384604028692132
1972,Cs3AlO3,Cs3AlO3_Va_O2,2.5495,-2.1623344291133013,1.301673256948105,2.018271449934742,4.567961223418582,1,107,Cs3AlO3_Va_O2107,-2.0,-1.271315977114255,-1.6412664942031974,0.6356579885571275,-1.793018636425102,3.384604028692132
1975,Cs3AlO3,Cs3AlO3_Va_O2,2.5495,-2.1623344291133013,1.301673256948105,2.018271449934742,3.118818702218517,2,107,Cs3AlO3_Va_O2107,-2.0,-1.271315977114255,-1.6412664942031974,0.6356579885571275,-1.793018636425102,3.384604028692132
1978,Cs3AlO3,Cs3AlO3_Va_O3,2.5495,-2.1623344291133013,1.1636077212086804,1.0139666307100113,6.088086709999979,0,111,Cs3AlO3_Va_O3111,-2.0,-0.8218911674695006,-1.3978189454470007,0.4109455837347503,-1.793018636425102,1.094053801981657
1981,Cs3AlO3,Cs3AlO3_Va_O3,2.5495,-2.1623344291133013,1.1636077212086804,1.0139666307100113,4.620566212250027,1,111,Cs3AlO3_Va_O3111,-2.0,-0.8218911674695006,-1.3978189454470007,0.4109455837347503,-1.793018636425102,1.094053801981657
1984,Cs3AlO3,Cs3AlO3_Va_O3,2.5495,-2.1623344291133013,1.1636077212086804,1.0139666307100113,3.979260875114659,2,111,Cs3AlO3_Va_O3111,-2.0,-0.8218911674695006,-1.3978189454470007,0.4109455837347503,-1.793018636425102,1.094053801981657
1987,Cs3As5O9,Cs3As5O9_Va_O1,3.0533,-1.813479687870183,2.300759668132267,3.5853851350950476,3.858635100000024,0,167,Cs3As5O9_Va_O1167,-2.0,-1.9146016046725072,-1.9146016046725072,0.9573008023362536,-1.150088447140494,6.580016855761635
1989,Cs3As5O9,Cs3As5O9_Va_O1,3.0533,-1.813479687870183,2.300759668132267,3.5853851350950476,1.2491575876495,1,167,Cs3As5O9_Va_O1167,-2.0,-1.9146016046725072,-1.9146016046725072,0.9573008023362536,-1.150088447140494,6.580016855761635
1991,Cs3As5O9,Cs3As5O9_Va_O2,3.0533,-1.813479687870183,1.784772160448136,2.190229088224017,4.123548859999923,0,203,Cs3As5O9_Va_O2203,-2.0,-1.8027716799815872,-1.6737188601072892,0.9013858399907936,-1.150088447140494,6.6105598121555404
1994,Cs3As5O9,Cs3As5O9_Va_O2,3.0533,-1.813479687870183,1.784772160448136,2.190229088224017,1.5449279490025292,1,203,Cs3As5O9_Va_O2203,-2.0,-1.8027716799815872,-1.6737188601072892,0.9013858399907936,-1.150088447140494,6.6105598121555404
1997,Cs3As5O9,Cs3As5O9_Va_O2,3.0533,-1.813479687870183,1.784772160448136,2.190229088224017,1.5530902640851243,2,203,Cs3As5O9_Va_O2203,-2.0,-1.8027716799815872,-1.6737188601072892,0.9013858399907936,-1.150088447140494,6.6105598121555404
2000,Cs3BiO3,Cs3BiO3_Va_O1,3.1239,-1.6135073416133006,1.2583858705521815,1.2319948434174932,3.9902905099999177,0,223,Cs3BiO3_Va_O1223,-2.0,-1.8792782514000392,-1.4429916482655178,0.9396391257000196,-0.9858147743813158,7.646973722253444
2003,Cs3BiO3,Cs3BiO3_Va_O1,3.1239,-1.6135073416133006,1.2583858705521815,1.2319948434174932,2.4546740547651975,1,223,Cs3BiO3_Va_O1223,-2.0,-1.8792782514000392,-1.4429916482655178,0.9396391257000196,-0.9858147743813158,7.646973722253444
2006,Cs3BiO3,Cs3BiO3_Va_O1,3.1239,-1.6135073416133006,1.2583858705521815,1.2319948434174932,2.2151650783418657,2,223,Cs3BiO3_Va_O1223,-2.0,-1.8792782514000392,-1.4429916482655178,0.9396391257000196,-0.9858147743813158,7.646973722253444
2009,Cs3GaO3,Cs3GaO3_Va_O1,2.7652,-1.7918229108990151,1.152682345968999,1.1952467384897871,4.966287370000041,0,111,Cs3GaO3_Va_O1111,-2.0,-0.697967919194752,-1.0717408439731653,0.348983959597376,-1.793018636425102,0.8622600049969747
2012,Cs3GaO3,Cs3GaO3_Va_O1,2.7652,-1.7918229108990151,1.152682345968999,1.1952467384897871,3.5916331667340913,1,111,Cs3GaO3_Va_O1111,-2.0,-0.697967919194752,-1.0717408439731653,0.348983959597376,-1.793018636425102,0.8622600049969747
2015,Cs3GaO3,Cs3GaO3_Va_O1,2.7652,-1.7918229108990151,1.152682345968999,1.1952467384897871,2.6585870210035263,2,111,Cs3GaO3_Va_O1111,-2.0,-0.697967919194752,-1.0717408439731653,0.348983959597376,-1.793018636425102,0.8622600049969747
2018,Cs3GaO3,Cs3GaO3_Va_O2,2.7652,-1.7918229108990151,1.368666003408448,2.0094397544209035,5.33823221000001,0,107,Cs3GaO3_Va_O2107,-2.0,-1.012679387503411,-1.5217301293444514,0.5063396937517055,-1.793018636425102,2.5021004826022097
2021,Cs3GaO3,Cs3GaO3_Va_O2,2.7652,-1.7918229108990151,1.368666003408448,2.0094397544209035,3.2862315655613257,1,107,Cs3GaO3_Va_O2107,-2.0,-1.012679387503411,-1.5217301293444514,0.5063396937517055,-1.793018636425102,2.5021004826022097
2024,Cs3GaO3,Cs3GaO3_Va_O2,2.7652,-1.7918229108990151,1.368666003408448,2.0094397544209035,1.5103695039975775,2,107,Cs3GaO3_Va_O2107,-2.0,-1.012679387503411,-1.5217301293444514,0.5063396937517055,-1.793018636425102,2.5021004826022097
2027,Cs3GaO3,Cs3GaO3_Va_O3,2.7652,-1.7918229108990151,1.147523410796776,1.209305153216084,4.943783830000038,0,103,Cs3GaO3_Va_O3103,-2.0,-0.7089524019570386,-1.325804507765397,0.3544762009785193,-1.793018636425102,0.8758300845106947
2030,Cs3GaO3,Cs3GaO3_Va_O3,2.7652,-1.7918229108990151,1.147523410796776,1.209305153216084,3.543871836989065,1,103,Cs3GaO3_Va_O3103,-2.0,-0.7089524019570386,-1.325804507765397,0.3544762009785193,-1.793018636425102,0.8758300845106947
2033,Cs3GaO3,Cs3GaO3_Va_O3,2.7652,-1.7918229108990151,1.147523410796776,1.209305153216084,2.6391238433890143,2,103,Cs3GaO3_Va_O3103,-2.0,-0.7089524019570386,-1.325804507765397,0.3544762009785193,-1.793018636425102,0.8758300845106947
2036,Cs3InO3,Cs3InO3_Va_O1,2.162,-1.6228296433990148,1.0806742389079749,0.8131442807694521,3.7392211399999926,0,95,Cs3InO3_Va_O195,-2.0,-1.3636421376592376,-1.1122993597748063,0.6818210688296188,-1.5993795332042406,4.817553090959534
2039,Cs3InO3,Cs3InO3_Va_O1,2.162,-1.6228296433990148,1.0806742389079749,0.8131442807694521,2.8728859174887065,1,95,Cs3InO3_Va_O195,-2.0,-1.3636421376592376,-1.1122993597748063,0.6818210688296188,-1.5993795332042406,4.817553090959534
2042,Cs3InO3,Cs3InO3_Va_O1,2.162,-1.6228296433990148,1.0806742389079749,0.8131442807694521,2.6184621975611218,2,95,Cs3InO3_Va_O195,-2.0,-1.3636421376592376,-1.1122993597748063,0.6818210688296188,-1.5993795332042406,4.817553090959534
2045,Cs3InO3,Cs3InO3_Va_O2,2.162,-1.6228296433990148,1.0714780534549535,0.8084876745712968,3.7899708200000166,0,103,Cs3InO3_Va_O2103,-2.0,-1.2858535099789878,-0.9829119037266136,0.6429267549894939,-1.5993795332042406,6.2130686665793124
2048,Cs3InO3,Cs3InO3_Va_O2,2.162,-1.6228296433990148,1.0714780534549535,0.8084876745712968,2.932476287148829,1,103,Cs3InO3_Va_O2103,-2.0,-1.2858535099789878,-0.9829119037266136,0.6429267549894939,-1.5993795332042406,6.2130686665793124
2051,Cs3InO3,Cs3InO3_Va_O2,2.162,-1.6228296433990148,1.0714780534549535,0.8084876745712968,2.6152465035622003,2,103,Cs3InO3_Va_O2103,-2.0,-1.2858535099789878,-0.9829119037266136,0.6429267549894939,-1.5993795332042406,6.2130686665793124
2054,Cs3InO3,Cs3InO3_Va_O3,2.162,-1.6228296433990148,1.291208814847411,1.5622893014384072,4.195470469999984,0,111,Cs3InO3_Va_O3111,-2.0,-1.4330723699703989,-1.267343896989261,0.7165361849851993,-1.5993795332042406,6.402540567014258
2057,Cs3InO3,Cs3InO3_Va_O3,2.162,-1.6228296433990148,1.291208814847411,1.5622893014384072,2.885603529301939,1,111,Cs3InO3_Va_O3111,-2.0,-1.4330723699703989,-1.267343896989261,0.7165361849851993,-1.5993795332042406,6.402540567014258
2060,Cs3InO3,Cs3InO3_Va_O3,2.162,-1.6228296433990148,1.291208814847411,1.5622893014384072,1.9479313795529152,2,111,Cs3InO3_Va_O3111,-2.0,-1.4330723699703989,-1.267343896989261,0.7165361849851993,-1.5993795332042406,6.402540567014258
2063,Cs3SbO3,Cs3SbO3_Va_O1,3.1413,-1.7730991862561585,1.3014648995320195,1.781327299744202,4.478133699999839,0,223,Cs3SbO3_Va_O1223,-2.0,-1.8626593398381752,-1.4223884027019864,0.9313296699190876,-1.2369755737418262,9.265494621662132
2065,Cs3SbO3,Cs3SbO3_Va_O1,3.1413,-1.7730991862561585,1.3014648995320195,1.781327299744202,2.704202613258878,1,223,Cs3SbO3_Va_O1223,-2.0,-1.8626593398381752,-1.4223884027019864,0.9313296699190876,-1.2369755737418262,9.265494621662132
2067,Cs3TlO3,Cs3TlO3_Va_O1,1.721,-1.3588165867323485,1.0177236782920165,1.016817471577232,2.6414307799999595,0,111,Cs3TlO3_Va_O1111,-2.0,-1.8838020904117776,-1.4453925811562174,0.9419010452058888,-0.5778080287901701,8.566170712317309
2070,Cs3TlO3,Cs3TlO3_Va_O1,1.721,-1.3588165867323485,1.0177236782920165,1.016817471577232,1.8754182751259871,1,111,Cs3TlO3_Va_O1111,-2.0,-1.8838020904117776,-1.4453925811562174,0.9419010452058888,-0.5778080287901701,8.566170712317309
2073,Cs3TlO3,Cs3TlO3_Va_O1,1.721,-1.3588165867323485,1.0177236782920165,1.016817471577232,1.3514328854371094,2,111,Cs3TlO3_Va_O1111,-2.0,-1.8838020904117776,-1.4453925811562174,0.9419010452058888,-0.5778080287901701,8.566170712317309
2076,Cs3TlO3,Cs3TlO3_Va_O2,1.721,-1.3588165867323485,1.2191740627970171,1.5381944522650497,3.002317409999998,0,107,Cs3TlO3_Va_O2107,-2.0,-2.1717478001951456,-1.9745707084193085,1.0858739000975728,-0.5778080287901701,8.466623939435827
2079,Cs3TlO3,Cs3TlO3_Va_O2,1.721,-1.3588165867323485,1.2191740627970171,1.5381944522650497,1.7760031273091583,1,107,Cs3TlO3_Va_O2107,-2.0,-2.1717478001951456,-1.9745707084193085,1.0858739000975728,-0.5778080287901701,8.466623939435827
2082,Cs3TlO3,Cs3TlO3_Va_O2,1.721,-1.3588165867323485,1.2191740627970171,1.5381944522650497,0.6941590089551788,2,107,Cs3TlO3_Va_O2107,-2.0,-2.1717478001951456,-1.9745707084193085,1.0858739000975728,-0.5778080287901701,8.466623939435827
2085,Cs3TlO3,Cs3TlO3_Va_O3,1.721,-1.3588165867323485,1.0343447315919527,0.9991333689248044,2.6019578300000124,0,103,Cs3TlO3_Va_O3103,-2.0,-1.9550800297358093,-1.6988721747528597,0.9775400148679046,-0.5778080287901701,6.350630172596033
2088,Cs3TlO3,Cs3TlO3_Va_O3,1.721,-1.3588165867323485,1.0343447315919527,0.9991333689248044,1.835725330236243,1,103,Cs3TlO3_Va_O3103,-2.0,-1.9550800297358093,-1.6988721747528597,0.9775400148679046,-0.5778080287901701,6.350630172596033
2091,Cs3TlO3,Cs3TlO3_Va_O3,1.721,-1.3588165867323485,1.0343447315919527,0.9991333689248044,1.3393566846161322,2,103,Cs3TlO3_Va_O3103,-2.0,-1.9550800297358093,-1.6988721747528597,0.9775400148679046,-0.5778080287901701,6.350630172596033
2094,Cs6Ge2O7,Cs6Ge2O7_Va_O1,3.0572999999999997,-1.955927745505748,1.8372139095871296,2.6132137682028223,4.63618572000008,0,287,Cs6Ge2O7_Va_O1287,-2.0,-1.558396226639661,-1.558396226639661,0.7791981133198305,-1.502819088333178,5.867859059352713
2097,Cs6Ge2O7,Cs6Ge2O7_Va_O1,3.0572999999999997,-1.955927745505748,1.8372139095871296,2.6132137682028223,2.7945434513013163,1,287,Cs6Ge2O7_Va_O1287,-2.0,-1.558396226639661,-1.558396226639661,0.7791981133198305,-1.502819088333178,5.867859059352713
2100,Cs6Ge2O7,Cs6Ge2O7_Va_O1,3.0572999999999997,-1.955927745505748,1.8372139095871296,2.6132137682028223,0.9727602042355604,2,287,Cs6Ge2O7_Va_O1287,-2.0,-1.558396226639661,-1.558396226639661,0.7791981133198305,-1.502819088333178,5.867859059352713
2103,Cs6Ge2O7,Cs6Ge2O7_Va_O2,3.0572999999999997,-1.955927745505748,1.308838888828172,1.5181205732351406,4.361023999999938,0,359,Cs6Ge2O7_Va_O2359,-2.0,-0.9889754853504604,-1.3706196169521347,0.4944877426752301,-1.502819088333178,1.8619041364418285
2106,Cs6Ge2O7,Cs6Ge2O7_Va_O2,3.0572999999999997,-1.955927745505748,1.308838888828172,1.5181205732351406,3.1502051904418567,1,359,Cs6Ge2O7_Va_O2359,-2.0,-0.9889754853504604,-1.3706196169521347,0.4944877426752301,-1.502819088333178,1.8619041364418285
2109,Cs6Ge2O7,Cs6Ge2O7_Va_O2,3.0572999999999997,-1.955927745505748,1.308838888828172,1.5181205732351406,2.3549337305776494,2,359,Cs6Ge2O7_Va_O2359,-2.0,-0.9889754853504604,-1.3706196169521347,0.4944877426752301,-1.502819088333178,1.8619041364418285
2112,Cs6Ge2O7,Cs6Ge2O7_Va_O3,3.0572999999999997,-1.955927745505748,1.2737514387069315,1.557822307412096,4.448107309999964,0,347,Cs6Ge2O7_Va_O3347,-2.0,-0.9744053910027252,-1.3779584368848128,0.4872026955013626,-1.502819088333178,1.8344736092586575
2115,Cs6Ge2O7,Cs6Ge2O7_Va_O3,3.0572999999999997,-1.955927745505748,1.2737514387069315,1.557822307412096,3.1882217077406096,1,347,Cs6Ge2O7_Va_O3347,-2.0,-0.9744053910027252,-1.3779584368848128,0.4872026955013626,-1.502819088333178,1.8344736092586575
2118,Cs6Ge2O7,Cs6Ge2O7_Va_O3,3.0572999999999997,-1.955927745505748,1.2737514387069315,1.557822307412096,2.3127457671821436,2,347,Cs6Ge2O7_Va_O3347,-2.0,-0.9744053910027252,-1.3779584368848128,0.4872026955013626,-1.502819088333178,1.8344736092586575
2121,Cs6Ge2O7,Cs6Ge2O7_Va_O4,3.0572999999999997,-1.955927745505748,1.2851526227502346,1.4882558943095323,4.396731010000062,0,335,Cs6Ge2O7_Va_O4335,-2.0,-0.9731950553512752,-0.9731950553512752,0.4865975276756376,-1.502819088333178,1.83219495929281
2123,Cs6Ge2O7,Cs6Ge2O7_Va_O4,3.0572999999999997,-1.955927745505748,1.2851526227502346,1.4882558943095323,3.1951965795965975,1,335,Cs6Ge2O7_Va_O4335,-2.0,-0.9731950553512752,-0.9731950553512752,0.4865975276756376,-1.502819088333178,1.83219495929281
2125,Cs6Si2O7,Cs6Si2O7_Va_O1,3.4442,-2.38790383483908,1.307232590920452,1.9356571815195789,6.415738609999957,0,275,Cs6Si2O7_Va_O1275,-2.0,-1.1854987299651796,-1.7295464859431016,0.5927493649825898,-1.793018636425102,2.855690565170716