,formula,full_name,band_gap,formation_energy,nn_ave_eleneg,o2p_center_from_vbm,vacancy_formation_energy,charge,vacancy_index,merge_on,valence,bv_sum_Crystal,bv_sum_nn,BVS_ratio,vr_max,Eb_sum
2375,Ga4GeO8,Ga4GeO8_Va_O2,2.2165000000000004,-2.232362397307691,2.590542132745094,2.867799700349588,2.572311366703765,1,71,Ga4GeO8_Va_O271,-2.0,-1.803977477591056,-1.803977477591056,0.901988738795528,-1.502819088333178,9.021159892063713
2378,Ga4GeO8,Ga4GeO8_Va_O2,2.2165000000000004,-2.232362397307691,2.590542132745094,2.867799700349588,-0.333438295266784,2,71,Ga4GeO8_Va_O271,-2.0,-1.803977477591056,-1.803977477591056,0.901988738795528,-1.502819088333178,9.021159892063713
2381,Ga4GeO8,Ga4GeO8_Va_O3,2.2165000000000004,-2.232362397307691,2.328462466875143,2.9082201134507284,5.298090269999998,0,103,Ga4GeO8_Va_O3103,-2.0,-1.7094870319997255,-1.7094870319997255,0.8547435159998629,-1.502819088333178,8.447507435327008
2383,Ga4GeO8,Ga4GeO8_Va_O3,2.2165000000000004,-2.232362397307691,2.328462466875143,2.9082201134507284,-0.8972251661709989,2,103,Ga4GeO8_Va_O3103,-2.0,-1.7094870319997255,-1.7094870319997255,0.8547435159998629,-1.502819088333178,8.447507435327008
2385,Ga4GeO8,Ga4GeO8_Va_O4,2.2165000000000004,-2.232362397307691,2.5347687117833875,2.5584330016921335,5.164637070000035,0,95,Ga4GeO8_Va_O495,-2.0,-1.876603014308431,-1.8766030143084311,0.9383015071542156,-1.502819088333178,8.169663883170191
2387,Ga4GeO8,Ga4GeO8_Va_O4,2.2165000000000004,-2.232362397307691,2.5347687117833875,2.5584330016921335,-0.015676545974367,2,95,Ga4GeO8_Va_O495,-2.0,-1.876603014308431,-1.8766030143084311,0.9383015071542156,-1.502819088333178,8.169663883170191
2389,GaAsO4,GaAsO4_Va_O1,3.1853,-1.9411355259722216,2.715514224375069,2.473321477298566,3.3072650300000053,0,47,GaAsO4_Va_O147,-2.0,-2.191725325741791,-2.191725325741791,1.0958626628708954,-0.6589084382122885,5.826032253465987
2391,GaAsO4,GaAsO4_Va_O1,3.1853,-1.9411355259722216,2.715514224375069,2.473321477298566,1.3100578473446636,1,47,GaAsO4_Va_O147,-2.0,-2.191725325741791,-2.191725325741791,1.0958626628708954,-0.6589084382122885,5.826032253465987
2393,GaAsO4,GaAsO4_Va_O2,3.1853,-1.9411355259722216,2.719485775624932,2.4577082162698316,3.3188758200000255,0,71,GaAsO4_Va_O271,-2.0,-2.1931728192520037,-2.1931728192520037,1.0965864096260018,-0.6589084382122885,5.829879972784706
2395,GaAsO4,GaAsO4_Va_O2,3.1853,-1.9411355259722216,2.719485775624932,2.4577082162698316,1.7142582460189173,1,71,GaAsO4_Va_O271,-2.0,-2.1931728192520037,-2.1931728192520037,1.0965864096260018,-0.6589084382122885,5.829879972784706
2397,GaBPbO4,GaBPbO4_Va_O1,3.1614,-2.299635754880952,2.388205813525239,3.322651171339009,6.382796300000232,0,191,GaBPbO4_Va_O1191,-2.0,-1.6481141829822814,-1.6481141829822814,0.8240570914911407,-1.1369603723458594,8.552087637212548
2400,GaBPbO4,GaBPbO4_Va_O1,3.1614,-2.299635754880952,2.388205813525239,3.322651171339009,3.531844364087446,1,191,GaBPbO4_Va_O1191,-2.0,-1.6481141829822814,-1.6481141829822814,0.8240570914911407,-1.1369603723458594,8.552087637212548
2403,GaBPbO4,GaBPbO4_Va_O1,3.1614,-2.299635754880952,2.388205813525239,3.322651171339009,-0.0702490606607306,2,191,GaBPbO4_Va_O1191,-2.0,-1.6481141829822814,-1.6481141829822814,0.8240570914911407,-1.1369603723458594,8.552087637212548
2406,GaBPbO4,GaBPbO4_Va_O2,3.1614,-2.299635754880952,2.534567709111244,2.7772845186688273,5.232565290000261,0,239,GaBPbO4_Va_O2239,-2.0,-2.1211704334407937,-2.1211704334407937,1.0605852167203969,-1.1369603723458594,8.902027925179064
2409,GaBPbO4,GaBPbO4_Va_O2,3.1614,-2.299635754880952,2.534567709111244,2.7772845186688273,2.6915352381747546,1,239,GaBPbO4_Va_O2239,-2.0,-2.1211704334407937,-2.1211704334407937,1.0605852167203969,-1.1369603723458594,8.902027925179064
2412,GaBPbO4,GaBPbO4_Va_O2,3.1614,-2.299635754880952,2.534567709111244,2.7772845186688273,-0.0467149495546812,2,239,GaBPbO4_Va_O2239,-2.0,-2.1211704334407937,-2.1211704334407937,1.0605852167203969,-1.1369603723458594,8.902027925179064
2415,GaBPbO4,GaBPbO4_Va_O3,3.1614,-2.299635754880952,2.478020335777268,3.343252051043186,6.370560330000339,0,335,GaBPbO4_Va_O3335,-2.0,-1.7933440588416896,-1.7933440588416896,0.8966720294208448,-1.1369603723458594,8.637852977618557
2418,GaBPbO4,GaBPbO4_Va_O3,3.1614,-2.299635754880952,2.478020335777268,3.343252051043186,3.411933922802298,1,335,GaBPbO4_Va_O3335,-2.0,-1.7933440588416896,-1.7933440588416896,0.8966720294208448,-1.1369603723458594,8.637852977618557
2421,GaBPbO4,GaBPbO4_Va_O3,3.1614,-2.299635754880952,2.478020335777268,3.343252051043186,-0.1184800781260411,2,335,GaBPbO4_Va_O3335,-2.0,-1.7933440588416896,-1.7933440588416896,0.8966720294208448,-1.1369603723458594,8.637852977618557
2424,GaSbO4,GaSbO4_Va_O1,0.9857999999999992,-2.0545152529166666,2.715256353492882,3.3752613355007526,-0.3025062322126399,2,127,GaSbO4_Va_O1127,-2.0,-2.3024610796605947,-2.3024610796605947,1.151230539830297,-0.5208045461292565,8.397581560339798
2425,GaSbO4,GaSbO4_Va_O2,0.9857999999999992,-2.0545152529166666,2.654743646507118,2.841521717099752,-0.0700653378202438,2,191,GaSbO4_Va_O2191,-2.0,-2.0390428865025827,-2.0390428865025827,1.0195214432512911,-0.5208045461292565,7.496927229457295
2426,Ge3Sb2O9,Ge3Sb2O9_Va_O1,2.7623,-1.9797399339285713,2.691501831277756,3.277237424301235,3.5858319699999672,0,87,Ge3Sb2O9_Va_O187,-2.0,-1.9634911847516625,-2.033165234773233,0.9817455923758313,-1.2369755737418262,7.08718346602371
2428,Ge3Sb2O9,Ge3Sb2O9_Va_O1,2.7623,-1.9797399339285713,2.691501831277756,3.277237424301235,1.8352725648844108,1,87,Ge3Sb2O9_Va_O187,-2.0,-1.9634911847516625,-2.033165234773233,0.9817455923758313,-1.2369755737418262,7.08718346602371
2430,Ge3Sb2O9,Ge3Sb2O9_Va_O2,2.7623,-1.9797399339285713,2.5817378781486573,3.701705733648085,3.730634949999976,0,111,Ge3Sb2O9_Va_O2111,-2.0,-1.9468874242061611,-1.9468874242061611,0.9734437121030806,-1.2369755737418262,7.330652381199272
2431,GeO2,GeO2_Va_O1,3.0522,-2.077037438333334,2.725,2.262441673488334,3.65275514999997,0,71,GeO2_Va_O171,-2.0,-2.0032133806606174,-2.0032133806606174,1.0016066903303087,-1.502819088333178,7.542737580205859
2433,GeO2,GeO2_Va_O1,3.0522,-2.077037438333334,2.725,2.262441673488334,2.8861973534256427,1,71,GeO2_Va_O171,-2.0,-2.0032133806606174,-2.0032133806606174,1.0016066903303087,-1.502819088333178,7.542737580205859
2435,GePbO3,GePbO3_Va_O1,2.5365,-1.9292281530000004,2.5859348115368204,3.5288020432128744,4.000361900000039,0,167,GePbO3_Va_O1167,-2.0,-1.8321435855623776,-1.8321435855623776,0.9160717927811888,-1.1369603723458594,6.898605215285211
2436,GePbO3,GePbO3_Va_O2,2.5365,-1.9292281530000004,2.6186738845561237,2.8269104136288705,3.7600193300001,0,161,GePbO3_Va_O2161,-2.0,-1.8687807361159403,-1.8687807361159403,0.9343903680579702,-1.1369603723458594,8.356495673060001
2439,GePbO3,GePbO3_Va_O2,2.5365,-1.9292281530000004,2.6186738845561237,2.8269104136288705,1.9985494945736104,1,161,GePbO3_Va_O2161,-2.0,-1.8687807361159403,-1.8687807361159403,0.9343903680579702,-1.1369603723458594,8.356495673060001
2442,GePbO3,GePbO3_Va_O2,2.5365,-1.9292281530000004,2.6186738845561237,2.8269104136288705,0.35707660110073,2,161,GePbO3_Va_O2161,-2.0,-1.8687807361159403,-1.8687807361159403,0.9343903680579702,-1.1369603723458594,8.356495673060001
2445,GePbO3,GePbO3_Va_O3,2.5365,-1.9292281530000004,2.6719584035434787,2.8677407307027503,3.857529450000024,0,179,GePbO3_Va_O3179,-2.0,-1.9107262448333888,-1.9107262448333888,0.9553631224166944,-1.1369603723458594,6.895122640908202
2448,GePbO3,GePbO3_Va_O3,2.5365,-1.9292281530000004,2.6719584035434787,2.8677407307027503,2.198191898782447,1,179,GePbO3_Va_O3179,-2.0,-1.9107262448333888,-1.9107262448333888,0.9553631224166944,-1.1369603723458594,6.895122640908202
2451,GePbO3,GePbO3_Va_O3,2.5365,-1.9292281530000004,2.6719584035434787,2.8677407307027503,-0.1522997003440347,2,179,GePbO3_Va_O3179,-2.0,-1.9107262448333888,-1.9107262448333888,0.9553631224166944,-1.1369603723458594,6.895122640908202
2454,InBO3,InBO3_Va_O1,2.7299,-2.460089823833333,2.4200000000000004,2.938655761671348,6.210019870000119,0,269,InBO3_Va_O1269,-2.0,-1.7969021637787306,-1.7969021637787304,0.8984510818893653,-1.5993795332042406,8.24406351591455
2457,InBO3,InBO3_Va_O1,2.7299,-2.460089823833333,2.4200000000000004,2.938655761671348,3.796390813307494,1,269,InBO3_Va_O1269,-2.0,-1.7969021637787306,-1.7969021637787304,0.8984510818893653,-1.5993795332042406,8.24406351591455
2460,InBO3,InBO3_Va_O1,2.7299,-2.460089823833333,2.4200000000000004,2.938655761671348,0.944989817580405,2,269,InBO3_Va_O1269,-2.0,-1.7969021637787306,-1.7969021637787304,0.8984510818893653,-1.5993795332042406,8.24406351591455
2463,InSbO4,InSbO4_Va_O1,1.0142999999999995,-1.9531342274999997,2.6237116361147925,2.051755378146668,0.3656080119095048,2,143,InSbO4_Va_O1143,-2.0,-2.000204944714811,-2.000204944714811,1.0001024723574057,-0.5208045461292565,6.151843328878038
2464,InSbO4,InSbO4_Va_O2,1.0142999999999995,-1.9531342274999997,2.5970296739771013,2.0861727336134797,0.1326721141507252,2,191,InSbO4_Va_O2191,-2.0,-1.9434644028942576,-1.9771087350720316,0.9717322014471288,-0.5208045461292565,5.977331749653107
2465,InSbO4,InSbO4_Va_O3,1.0142999999999995,-1.9531342274999997,2.726488013665243,2.701140616259175,-0.340822269739665,2,239,InSbO4_Va_O3239,-2.0,-2.224079238459066,-2.224079238459066,1.112039619229533,-0.5208045461292565,7.443277835319036
2466,InSbO4,InSbO4_Va_O4,1.0142999999999995,-1.9531342274999997,2.7627706762428645,2.590412374144096,-0.3120198267977527,2,287,InSbO4_Va_O4287,-2.0,-2.1359400242897766,-2.135940024289776,1.0679700121448883,-0.5208045461292565,7.148304235501053
2467,K2Al2Sb2O7,K2Al2Sb2O7_Va_O1,3.4046000000000003,-2.5361834362307683,1.897459853782812,2.259956638137561,5.413325590000008,0,233,K2Al2Sb2O7_Va_O1233,-2.0,-1.9083206364822989,-2.1280090526255995,0.9541603182411492,-1.2369755737418262,5.835574010712238
2470,K2Al2Sb2O7,K2Al2Sb2O7_Va_O1,3.4046000000000003,-2.5361834362307683,1.897459853782812,2.259956638137561,3.5163127772897784,1,233,K2Al2Sb2O7_Va_O1233,-2.0,-1.9083206364822989,-2.1280090526255995,0.9541603182411492,-1.2369755737418262,5.835574010712238
2473,K2Al2Sb2O7,K2Al2Sb2O7_Va_O1,3.4046000000000003,-2.5361834362307683,1.897459853782812,2.259956638137561,1.8665043447940872,2,233,K2Al2Sb2O7_Va_O1233,-2.0,-1.9083206364822989,-2.1280090526255995,0.9541603182411492,-1.2369755737418262,5.835574010712238
2476,K2Al2Sb2O7,K2Al2Sb2O7_Va_O2,3.4046000000000003,-2.5361834362307683,2.039349228814054,1.6530687004716047,6.13320810000017,0,197,K2Al2Sb2O7_Va_O2197,-2.0,-1.8576676924393567,-1.8576676924393567,0.9288338462196783,-1.2369755737418262,4.945638746767988
2479,K2Al2Sb2O7,K2Al2Sb2O7_Va_O2,3.4046000000000003,-2.5361834362307683,2.039349228814054,1.6530687004716047,4.88619116443071,1,197,K2Al2Sb2O7_Va_O2197,-2.0,-1.8576676924393567,-1.8576676924393567,0.9288338462196783,-1.2369755737418262,4.945638746767988
2482,K2Al2Sb2O7,K2Al2Sb2O7_Va_O2,3.4046000000000003,-2.5361834362307683,2.039349228814054,1.6530687004716047,3.0483819103836303,2,197,K2Al2Sb2O7_Va_O2197,-2.0,-1.8576676924393567,-1.8576676924393567,0.9288338462196783,-1.2369755737418262,4.945638746767988
2485,K2BeO2,K2BeO2_Va_O1,2.9366000000000003,-2.1087224357000003,1.0788354602723205,1.1404806477997904,6.505276430000217,0,455,K2BeO2_Va_O1455,-2.0,-0.7050855587087019,-1.320871529524501,0.3525427793543509,-1.8820736227458112,1.078427117465762
2488,K2BeO2,K2BeO2_Va_O1,2.9366000000000003,-2.1087224357000003,1.0788354602723205,1.1404806477997904,5.163893337289377,1,455,K2BeO2_Va_O1455,-2.0,-0.7050855587087019,-1.320871529524501,0.3525427793543509,-1.8820736227458112,1.078427117465762
2491,K2BeO2,K2BeO2_Va_O1,2.9366000000000003,-2.1087224357000003,1.0788354602723205,1.1404806477997904,5.465442887808198,2,455,K2BeO2_Va_O1455,-2.0,-0.7050855587087019,-1.320871529524501,0.3525427793543509,-1.8820736227458112,1.078427117465762
2494,K2BeO2,K2BeO2_Va_O2,2.9366000000000003,-2.1087224357000003,1.1792865484720894,2.165033297398809,6.824801780000039,0,479,K2BeO2_Va_O2479,-2.0,-1.0171674603672942,-1.6073036399736118,0.5085837301836471,-1.8820736227458112,3.111511670364701
2497,K2BeO2,K2BeO2_Va_O2,2.9366000000000003,-2.1087224357000003,1.1792865484720894,2.165033297398809,4.742982562926423,1,479,K2BeO2_Va_O2479,-2.0,-1.0171674603672942,-1.6073036399736118,0.5085837301836471,-1.8820736227458112,3.111511670364701
2500,K2BeO2,K2BeO2_Va_O2,2.9366000000000003,-2.1087224357000003,1.1792865484720894,2.165033297398809,3.3856319953420235,2,479,K2BeO2_Va_O2479,-2.0,-1.0171674603672942,-1.6073036399736118,0.5085837301836471,-1.8820736227458112,3.111511670364701
2503,K2LiBO3,K2LiBO3_Va_O1,3.6622,-2.3490071212142856,1.2714838951610274,2.5262098679396505,7.01124975999995,0,239,K2LiBO3_Va_O1239,-2.0,-1.3025634672523552,-1.6574472134109586,0.6512817336261776,-1.8820736227458112,5.503774874460738
2506,K2LiBO3,K2LiBO3_Va_O1,3.6622,-2.3490071212142856,1.2714838951610274,2.5262098679396505,4.57635456343089,1,239,K2LiBO3_Va_O1239,-2.0,-1.3025634672523552,-1.6574472134109586,0.6512817336261776,-1.8820736227458112,5.503774874460738
2509,K2LiBO3,K2LiBO3_Va_O1,3.6622,-2.3490071212142856,1.2714838951610274,2.5262098679396505,2.5871372469554097,2,239,K2LiBO3_Va_O1239,-2.0,-1.3025634672523552,-1.6574472134109586,0.6512817336261776,-1.8820736227458112,5.503774874460738
2512,K2LiBO3,K2LiBO3_Va_O2,3.6622,-2.3490071212142856,1.2992833897480602,2.2797618753094913,6.8524810499999464,0,335,K2LiBO3_Va_O2335,-2.0,-1.0034140050409452,-1.735655169777299,0.5017070025204726,-1.8820736227458112,2.7275215319349213
2515,K2LiBO3,K2LiBO3_Va_O2,3.6622,-2.3490071212142856,1.2992833897480602,2.2797618753094913,4.670710104197313,1,335,K2LiBO3_Va_O2335,-2.0,-1.0034140050409452,-1.735655169777299,0.5017070025204726,-1.8820736227458112,2.7275215319349213
2518,K2LiBO3,K2LiBO3_Va_O2,3.6622,-2.3490071212142856,1.2992833897480602,2.2797618753094913,2.8601783104521226,2,335,K2LiBO3_Va_O2335,-2.0,-1.0034140050409452,-1.735655169777299,0.5017070025204726,-1.8820736227458112,2.7275215319349213
2521,K2LiBO3,K2LiBO3_Va_O3,3.6622,-2.3490071212142856,1.2815457450993528,2.5853234554880604,7.038596770000035,0,311,K2LiBO3_Va_O3311,-2.0,-1.423049331720053,-1.7745958311050904,0.7115246658600265,-1.8820736227458112,6.012868742250387
2523,K2LiBO3,K2LiBO3_Va_O3,3.6622,-2.3490071212142856,1.2815457450993528,2.5853234554880604,4.6046470544826335,1,311,K2LiBO3_Va_O3311,-2.0,-1.423049331720053,-1.7745958311050904,0.7115246658600265,-1.8820736227458112,6.012868742250387
2525,K2MgO2,K2MgO2_Va_O1,2.5940000000000003,-1.9796745647,1.0370545008364616,1.037646905077546,6.131575530000029,0,79,K2MgO2_Va_O179,-2.0,-0.8675194393697214,-1.4120729069610187,0.4337597196848607,-1.8820736227458112,1.4957690038162184
2528,K2MgO2,K2MgO2_Va_O1,2.5940000000000003,-1.9796745647,1.0370545008364616,1.037646905077546,4.766037959143095,1,79,K2MgO2_Va_O179,-2.0,-0.8675194393697214,-1.4120729069610187,0.4337597196848607,-1.8820736227458112,1.4957690038162184
2531,K2MgO2,K2MgO2_Va_O1,2.5940000000000003,-1.9796745647,1.0370545008364616,1.037646905077546,4.498153315564384,2,79,K2MgO2_Va_O179,-2.0,-0.8675194393697214,-1.4120729069610187,0.4337597196848607,-1.8820736227458112,1.4957690038162184
2534,K2Na4Be2O5,K2Na4Be2O5_Va_O1,2.5279,-2.0190970670928374,1.079207477104536,1.368427025468652,6.455074309999768,0,449,K2Na4Be2O5_Va_O1449,-2.0,-0.5724185097942508,-1.5409096608665118,0.2862092548971254,-1.8820736227458112,0.8755131003278657
2537,K2Na4Be2O5,K2Na4Be2O5_Va_O1,2.5279,-2.0190970670928374,1.079207477104536,1.368427025468652,4.988815140274307,1,449,K2Na4Be2O5_Va_O1449,-2.0,-0.5724185097942508,-1.5409096608665118,0.2862092548971254,-1.8820736227458112,0.8755131003278657
2540,K2Na4Be2O5,K2Na4Be2O5_Va_O1,2.5279,-2.0190970670928374,1.079207477104536,1.368427025468652,4.5105489192463235,2,449,K2Na4Be2O5_Va_O1449,-2.0,-0.5724185097942508,-1.5409096608665118,0.2862092548971254,-1.8820736227458112,0.8755131003278657
2543,K2Na4Be2O5,K2Na4Be2O5_Va_O2,2.5279,-2.0190970670928374,1.2249327298458936,2.2681964729952075,6.8452371100000935,0,467,K2Na4Be2O5_Va_O2467,-2.0,-2.0404562929329972,-2.0404562929329977,1.0202281464664986,-1.8820736227458112,10.66966908903448
2546,K2Na4Be2O5,K2Na4Be2O5_Va_O2,2.5279,-2.0190970670928374,1.2249327298458936,2.2681964729952075,4.790729932173514,1,467,K2Na4Be2O5_Va_O2467,-2.0,-2.0404562929329972,-2.0404562929329977,1.0202281464664986,-1.8820736227458112,10.66966908903448
2549,K2Na4Be2O5,K2Na4Be2O5_Va_O2,2.5279,-2.0190970670928374,1.2249327298458936,2.2681964729952075,3.395434467097263,2,467,K2Na4Be2O5_Va_O2467,-2.0,-2.0404562929329972,-2.0404562929329977,1.0202281464664986,-1.8820736227458112,10.66966908903448
2552,K2NaTlO3,K2NaTlO3_Va_O1,1.3018,-1.4404617283407233,1.056891181663265,1.121879618375898,2.528148900000028,0,103,K2NaTlO3_Va_O1103,-2.0,-2.0212133459786283,-2.0212133459786283,1.0106066729893142,-0.5778080287901701,6.627250288520217
2555,K2NaTlO3,K2NaTlO3_Va_O1,1.3018,-1.4404617283407233,1.056891181663265,1.121879618375898,2.017908364440763,1,103,K2NaTlO3_Va_O1103,-2.0,-2.0212133459786283,-2.0212133459786283,1.0106066729893142,-0.5778080287901701,6.627250288520217
2558,K2NaTlO3,K2NaTlO3_Va_O1,1.3018,-1.4404617283407233,1.056891181663265,1.121879618375898,1.703762061088567,2,103,K2NaTlO3_Va_O1103,-2.0,-2.0212133459786283,-2.0212133459786283,1.0106066729893142,-0.5778080287901701,6.627250288520217
2561,K2NaTlO3,K2NaTlO3_Va_O2,1.3018,-1.4404617283407233,1.044136746349314,1.1368770722414523,2.585164900000004,0,107,K2NaTlO3_Va_O2107,-2.0,-2.0731155218067925,-2.073115521806793,1.0365577609033962,-0.5778080287901701,6.913511843669597
2564,K2NaTlO3,K2NaTlO3_Va_O2,1.3018,-1.4404617283407233,1.044136746349314,1.1368770722414523,2.022085018272592,1,107,K2NaTlO3_Va_O2107,-2.0,-2.0731155218067925,-2.073115521806793,1.0365577609033962,-0.5778080287901701,6.913511843669597
2567,K2NaTlO3,K2NaTlO3_Va_O2,1.3018,-1.4404617283407233,1.044136746349314,1.1368770722414523,1.7303994829994256,2,107,K2NaTlO3_Va_O2107,-2.0,-2.0731155218067925,-2.073115521806793,1.0365577609033962,-0.5778080287901701,6.913511843669597
2570,K2NaTlO3,K2NaTlO3_Va_O3,1.3018,-1.4404617283407233,1.1982290052571076,1.5421633781646564,2.9388010800000277,0,111,K2NaTlO3_Va_O3111,-2.0,-2.0756261666311007,-2.0280129616273905,1.0378130833155503,-0.5778080287901701,7.087406845640675
2573,K2NaTlO3,K2NaTlO3_Va_O3,1.3018,-1.4404617283407233,1.1982290052571076,1.5421633781646564,2.0063104774511027,1,111,K2NaTlO3_Va_O3111,-2.0,-2.0756261666311007,-2.0280129616273905,1.0378130833155503,-0.5778080287901701,7.087406845640675
2576,K2NaTlO3,K2NaTlO3_Va_O3,1.3018,-1.4404617283407233,1.1982290052571076,1.5421633781646564,1.1512761002277814,2,111,K2NaTlO3_Va_O3111,-2.0,-2.0756261666311007,-2.0280129616273905,1.0378130833155503,-0.5778080287901701,7.087406845640675
2579,K2O,K2O_Va_O1,1.7232,-1.2478575836666663,0.82,0.3385650409912411,4.534054169999999,0,95,K2O_Va_O195,-2.0,-1.0633328525694083,-1.0633328525694083,0.5316664262847042,-1.8820736227458112,4.376838961672491
2582,K2O,K2O_Va_O1,1.7232,-1.2478575836666663,0.82,0.3385650409912411,4.193671011566598,1,95,K2O_Va_O195,-2.0,-1.0633328525694083,-1.0633328525694083,0.5316664262847042,-1.8820736227458112,4.376838961672491
2585,K2O,K2O_Va_O1,1.7232,-1.2478575836666663,0.82,0.3385650409912411,4.953010645148932,2,95,K2O_Va_O195,-2.0,-1.0633328525694083,-1.0633328525694083,0.5316664262847042,-1.8820736227458112,4.376838961672491
2588,K2Pb2O3,K2Pb2O3_Va_O1,1.5620000000000005,-1.5674005930000003,1.6435533525261856,2.440610641714416,4.097887880000039,0,223,K2Pb2O3_Va_O1223,-2.0,-1.8224341240692703,-1.8224341240692703,0.9112170620346352,-1.1369603723458594,6.896192533130216
2590,K2Pb2O3,K2Pb2O3_Va_O1,1.5620000000000005,-1.5674005930000003,1.6435533525261856,2.440610641714416,2.554019277455571,1,223,K2Pb2O3_Va_O1223,-2.0,-1.8224341240692703,-1.8224341240692703,0.9112170620346352,-1.1369603723458594,6.896192533130216