,formula,full_name,band_gap,formation_energy,nn_ave_eleneg,o2p_center_from_vbm,vacancy_formation_energy,charge,vacancy_index,merge_on,valence,bv_sum_Crystal,bv_sum_nn,BVS_ratio,vr_max,Eb_sum
5842,SrGePbO4,SrGePbO4_Va_O3,3.4394000000000005,-2.3839253838095233,2.286921758507515,2.1805350707014504,2.4137775205051577,1,287,SrGePbO4_Va_O3287,-2.0,-1.853445095560342,-1.853445095560342,0.9267225477801708,-1.1369603723458594,8.31873897817884
5845,SrGePbO4,SrGePbO4_Va_O3,3.4394000000000005,-2.3839253838095233,2.286921758507515,2.1805350707014504,0.2601868682994879,2,287,SrGePbO4_Va_O3287,-2.0,-1.853445095560342,-1.853445095560342,0.9267225477801708,-1.1369603723458594,8.31873897817884
5848,SrGePbO4,SrGePbO4_Va_O4,3.4394000000000005,-2.3839253838095233,2.197940068845184,2.36503167400965,4.441176619999974,0,335,SrGePbO4_Va_O4335,-2.0,-1.8161010831649556,-1.8161010831649556,0.9080505415824778,-1.1369603723458594,8.151129431902438
5851,SrGePbO4,SrGePbO4_Va_O4,3.4394000000000005,-2.3839253838095233,2.197940068845184,2.36503167400965,2.459749751957898,1,335,SrGePbO4_Va_O4335,-2.0,-1.8161010831649556,-1.8161010831649556,0.9080505415824778,-1.1369603723458594,8.151129431902438
5854,SrGePbO4,SrGePbO4_Va_O4,3.4394000000000005,-2.3839253838095233,2.197940068845184,2.36503167400965,0.3577054842737885,2,335,SrGePbO4_Va_O4335,-2.0,-1.8161010831649556,-1.8161010831649556,0.9080505415824778,-1.1369603723458594,8.151129431902438
5857,SrIn2O4,SrIn2O4_Va_O1,1.8881000000000008,-2.357273833095238,1.975956619531696,1.8071453573751548,5.0753722799999625,0,47,SrIn2O4_Va_O147,-2.0,-1.4090554025795816,-1.4090554025795818,0.7045277012897908,-1.5993795332042406,6.407175820444811
5860,SrIn2O4,SrIn2O4_Va_O1,1.8881000000000008,-2.357273833095238,1.975956619531696,1.8071453573751548,3.086452686865049,1,47,SrIn2O4_Va_O147,-2.0,-1.4090554025795816,-1.4090554025795818,0.7045277012897908,-1.5993795332042406,6.407175820444811
5863,SrIn2O4,SrIn2O4_Va_O1,1.8881000000000008,-2.357273833095238,1.975956619531696,1.8071453573751548,1.3402534332253642,2,47,SrIn2O4_Va_O147,-2.0,-1.4090554025795816,-1.4090554025795818,0.7045277012897908,-1.5993795332042406,6.407175820444811
5866,SrIn2O4,SrIn2O4_Va_O2,1.8881000000000008,-2.357273833095238,1.9731408891390827,1.5315136840051684,5.1153110299999955,0,59,SrIn2O4_Va_O259,-2.0,-1.5014921741211875,-1.5014921741211875,0.7507460870605939,-1.5993795332042406,6.8274990003972125
5869,SrIn2O4,SrIn2O4_Va_O2,1.8881000000000008,-2.357273833095238,1.9731408891390827,1.5315136840051684,3.058677510296918,1,59,SrIn2O4_Va_O259,-2.0,-1.5014921741211875,-1.5014921741211875,0.7507460870605939,-1.5993795332042406,6.8274990003972125
5872,SrIn2O4,SrIn2O4_Va_O2,1.8881000000000008,-2.357273833095238,1.9731408891390827,1.5315136840051684,1.2584773653376833,2,59,SrIn2O4_Va_O259,-2.0,-1.5014921741211875,-1.5014921741211875,0.7507460870605939,-1.5993795332042406,6.8274990003972125
5875,SrIn2O4,SrIn2O4_Va_O3,1.8881000000000008,-2.357273833095238,2.1229562814465397,1.4984038828330914,4.866963349999944,0,71,SrIn2O4_Va_O371,-2.0,-1.4991857588659157,-1.4991857588659157,0.7495928794329578,-1.5993795332042406,6.8170114013798635
5878,SrIn2O4,SrIn2O4_Va_O3,1.8881000000000008,-2.357273833095238,2.1229562814465397,1.4984038828330914,2.97111262184127,1,71,SrIn2O4_Va_O371,-2.0,-1.4991857588659157,-1.4991857588659157,0.7495928794329578,-1.5993795332042406,6.8170114013798635
5881,SrIn2O4,SrIn2O4_Va_O3,1.8881000000000008,-2.357273833095238,2.1229562814465397,1.4984038828330914,1.2255904040940293,2,71,SrIn2O4_Va_O371,-2.0,-1.4991857588659157,-1.4991857588659157,0.7495928794329578,-1.5993795332042406,6.8170114013798635
5884,SrIn2O4,SrIn2O4_Va_O4,1.8881000000000008,-2.357273833095238,2.0210026484402803,1.630761717052397,4.9989036199999735,0,83,SrIn2O4_Va_O483,-2.0,-1.560171910867628,-1.5601719108676275,0.780085955433814,-1.5993795332042406,7.094324130014942
5887,SrIn2O4,SrIn2O4_Va_O4,1.8881000000000008,-2.357273833095238,2.0210026484402803,1.630761717052397,2.983042367525746,1,83,SrIn2O4_Va_O483,-2.0,-1.560171910867628,-1.5601719108676275,0.780085955433814,-1.5993795332042406,7.094324130014942
5890,SrIn2O4,SrIn2O4_Va_O4,1.8881000000000008,-2.357273833095238,2.0210026484402803,1.630761717052397,1.1661962108236763,2,83,SrIn2O4_Va_O483,-2.0,-1.560171910867628,-1.5601719108676275,0.780085955433814,-1.5993795332042406,7.094324130014942
5893,SrLi2SiO4,SrLi2SiO4_Va_O1,4.6882,-3.0221305220833337,1.482926365398387,1.8266348316816623,6.7818968699999775,0,161,SrLi2SiO4_Va_O1161,-2.0,-1.61759055067879,-1.978806022550864,0.808795275339395,-2.356834901289411,6.334405725639352
5896,SrLi2SiO4,SrLi2SiO4_Va_O1,4.6882,-3.0221305220833337,1.482926365398387,1.8266348316816623,4.724432843112982,1,161,SrLi2SiO4_Va_O1161,-2.0,-1.61759055067879,-1.978806022550864,0.808795275339395,-2.356834901289411,6.334405725639352
5899,SrLi2SiO4,SrLi2SiO4_Va_O1,4.6882,-3.0221305220833337,1.482926365398387,1.8266348316816623,3.3525118850037665,2,161,SrLi2SiO4_Va_O1161,-2.0,-1.61759055067879,-1.978806022550864,0.808795275339395,-2.356834901289411,6.334405725639352
5902,SrLi2SiO4,SrLi2SiO4_Va_O2,4.6882,-3.0221305220833337,1.470910524122716,1.9269463357027872,6.848840470000036,0,215,SrLi2SiO4_Va_O2215,-2.0,-2.0235292213853744,-2.0235292213853744,1.0117646106926872,-2.356834901289411,11.450259837831862
5905,SrLi2SiO4,SrLi2SiO4_Va_O2,4.6882,-3.0221305220833337,1.470910524122716,1.9269463357027872,4.745940758307882,1,215,SrLi2SiO4_Va_O2215,-2.0,-2.0235292213853744,-2.0235292213853744,1.0117646106926872,-2.356834901289411,11.450259837831862
5908,SrLi2SiO4,SrLi2SiO4_Va_O2,4.6882,-3.0221305220833337,1.470910524122716,1.9269463357027872,3.089208925185678,2,215,SrLi2SiO4_Va_O2215,-2.0,-2.0235292213853744,-2.0235292213853744,1.0117646106926872,-2.356834901289411,11.450259837831862
5911,SrLiBO3,SrLiBO3_Va_O1,4.4504,-2.9997611794444454,1.4591439551030227,2.6759944811907257,7.084939759999893,0,191,SrLiBO3_Va_O1191,-2.0,-1.7674830972990556,-1.7674830972990556,0.8837415486495278,-2.1905056483979153,10.548248931186876
5914,SrLiBO3,SrLiBO3_Va_O1,4.4504,-2.9997611794444454,1.4591439551030227,2.6759944811907257,4.487418081070439,1,191,SrLiBO3_Va_O1191,-2.0,-1.7674830972990556,-1.7674830972990556,0.8837415486495278,-2.1905056483979153,10.548248931186876
5917,SrLiBO3,SrLiBO3_Va_O1,4.4504,-2.9997611794444454,1.4591439551030227,2.6759944811907257,2.368445445363061,2,191,SrLiBO3_Va_O1191,-2.0,-1.7674830972990556,-1.7674830972990556,0.8837415486495278,-2.1905056483979153,10.548248931186876
5920,SrLiBO3,SrLiBO3_Va_O2,4.4504,-2.9997611794444454,1.695933600275719,2.5661350527155924,7.0446831900000095,0,183,SrLiBO3_Va_O2183,-2.0,-0.9964701117854872,-1.8067301824148352,0.4982350558927436,-2.1905056483979153,2.7086463535194607
5923,SrLiBO3,SrLiBO3_Va_O2,4.4504,-2.9997611794444454,1.695933600275719,2.5661350527155924,4.482875067340848,1,183,SrLiBO3_Va_O2183,-2.0,-0.9964701117854872,-1.8067301824148352,0.4982350558927436,-2.1905056483979153,2.7086463535194607
5926,SrLiBO3,SrLiBO3_Va_O2,4.4504,-2.9997611794444454,1.695933600275719,2.5661350527155924,2.3992975105196908,2,183,SrLiBO3_Va_O2183,-2.0,-0.9964701117854872,-1.8067301824148352,0.4982350558927436,-2.1905056483979153,2.7086463535194607
5929,SrLiBO3,SrLiBO3_Va_O3,4.4504,-2.9997611794444454,1.5105340412527664,2.644823179286754,7.071252509999917,0,159,SrLiBO3_Va_O3159,-2.0,-1.8888142969028416,-1.8888142969028416,0.9444071484514208,-2.1905056483979153,11.272347338971372
5932,SrLiBO3,SrLiBO3_Va_O3,4.4504,-2.9997611794444454,1.5105340412527664,2.644823179286754,4.47538138829722,1,159,SrLiBO3_Va_O3159,-2.0,-1.8888142969028416,-1.8888142969028416,0.9444071484514208,-2.1905056483979153,11.272347338971372
5935,SrLiBO3,SrLiBO3_Va_O3,4.4504,-2.9997611794444454,1.5105340412527664,2.644823179286754,2.330638083497968,2,159,SrLiBO3_Va_O3159,-2.0,-1.8888142969028416,-1.8888142969028416,0.9444071484514208,-2.1905056483979153,11.272347338971372
5938,SrO,SrO_Va_O1,3.1607000000000003,-3.077090665833333,0.9500000000000002,0.908791266440336,7.1794223499999905,0,63,SrO_Va_O163,-2.0,-1.3949535960422548,-1.394953596042255,0.6974767980211274,-3.067823794114626,7.292571601075461
5941,SrO,SrO_Va_O1,3.1607000000000003,-3.077090665833333,0.9500000000000002,0.908791266440336,4.766171724526229,1,63,SrO_Va_O163,-2.0,-1.3949535960422548,-1.394953596042255,0.6974767980211274,-3.067823794114626,7.292571601075461
5944,SrO,SrO_Va_O1,3.1607000000000003,-3.077090665833333,0.9500000000000002,0.908791266440336,3.82069807799404,2,63,SrO_Va_O163,-2.0,-1.3949535960422548,-1.394953596042255,0.6974767980211274,-3.067823794114626,7.292571601075461
5947,SrPbO3,SrPbO3_Va_O1,0.8837999999999999,-2.1561375228333324,2.2539923811744185,1.532005192005701,0.0745024407813379,2,305,SrPbO3_Va_O1305,-2.0,-2.0218686360806175,-2.0218686360806175,1.0109343180403088,-0.2712847561180753,6.918376043099062
5948,SrPbO3,SrPbO3_Va_O2,0.8837999999999999,-2.1561375228333324,2.2388598914155593,1.4658836270450994,0.1555864603969214,2,359,SrPbO3_Va_O2359,-2.0,-1.9285915967114924,-1.9285915967114928,0.9642957983557462,-0.2712847561180753,8.279592670005018
5949,SrSn(BO3)2,SrSn(BO3)2_Va_O1,3.814599999999999,-2.8331703589999995,2.3137141771732708,2.7809334773488184,5.851786579999848,0,269,SrSn(BO3)2_Va_O1269,-2.0,-1.9673072089554016,-1.9673072089554016,0.9836536044777008,-1.538575818365933,9.41044140249906
5952,SrSn(BO3)2,SrSn(BO3)2_Va_O1,3.814599999999999,-2.8331703589999995,2.3137141771732708,2.7809334773488184,3.813141560096891,1,269,SrSn(BO3)2_Va_O1269,-2.0,-1.9673072089554016,-1.9673072089554016,0.9836536044777008,-1.538575818365933,9.41044140249906
5955,SrSn(BO3)2,SrSn(BO3)2_Va_O1,3.814599999999999,-2.8331703589999995,2.3137141771732708,2.7809334773488184,0.1317356538183387,2,269,SrSn(BO3)2_Va_O1269,-2.0,-1.9673072089554016,-1.9673072089554016,0.9836536044777008,-1.538575818365933,9.41044140249906
5958,SrSnO3,SrSnO3_Va_O1,1.9664,-2.637945564833333,2.116172940657988,1.882989803022736,4.92482370999995,0,287,SrSnO3_Va_O1287,-2.0,-1.8724457266504968,-1.872445726650497,0.9362228633252484,-1.538575818365933,9.365309895205545
5961,SrSnO3,SrSnO3_Va_O1,1.9664,-2.637945564833333,2.116172940657988,1.882989803022736,2.9704008788516383,1,287,SrSnO3_Va_O1287,-2.0,-1.8724457266504968,-1.872445726650497,0.9362228633252484,-1.538575818365933,9.365309895205545
5964,SrSnO3,SrSnO3_Va_O1,1.9664,-2.637945564833333,2.116172940657988,1.882989803022736,1.063512574112727,2,287,SrSnO3_Va_O1287,-2.0,-1.8724457266504968,-1.872445726650497,0.9362228633252484,-1.538575818365933,9.365309895205545
5967,SrSnO3,SrSnO3_Va_O2,1.9664,-2.637945564833333,2.1240512179988422,1.9014707125479116,4.92797100999986,0,359,SrSnO3_Va_O2359,-2.0,-1.877566373615854,-1.8775663736158543,0.938783186807927,-1.538575818365933,7.754990529304241
5970,SrSnO3,SrSnO3_Va_O2,1.9664,-2.637945564833333,2.1240512179988422,1.9014707125479116,2.958165338124002,1,359,SrSnO3_Va_O2359,-2.0,-1.877566373615854,-1.8775663736158543,0.938783186807927,-1.538575818365933,7.754990529304241
5973,SrSnO3,SrSnO3_Va_O2,1.9664,-2.637945564833333,2.1240512179988422,1.9014707125479116,1.0387557685588198,2,359,SrSnO3_Va_O2359,-2.0,-1.877566373615854,-1.8775663736158543,0.938783186807927,-1.538575818365933,7.754990529304241
5976,Tl2O,Tl2O_Va_O1,0.3592000000000004,-0.8199783955555553,1.6847532472986757,2.450006096135706,-1.3306771732245497,2,449,Tl2O_Va_O1449,-2.0,-1.9350591233696897,-1.93505912336969,0.9675295616848448,-0.8674893634033586,7.832131219395446
5977,Tl2SnO3,Tl2SnO3_Va_O1,1.0258000000000005,-1.5003471177777783,2.3086155511875828,3.3593190693101445,4.663410020000024,0,63,Tl2SnO3_Va_O163,-2.0,-1.600521313419078,-1.7011716479946324,0.8002606567095389,-0.8674893634033586,5.7324279789576496
5979,Tl2SnO3,Tl2SnO3_Va_O1,1.0258000000000005,-1.5003471177777783,2.3086155511875828,3.3593190693101445,-0.6252152741448502,2,63,Tl2SnO3_Va_O163,-2.0,-1.600521313419078,-1.7011716479946324,0.8002606567095389,-0.8674893634033586,5.7324279789576496
5981,Tl2SnO3,Tl2SnO3_Va_O2,1.0258000000000005,-1.5003471177777783,2.269492997378121,3.0497117872618964,4.260191350000023,0,79,Tl2SnO3_Va_O279,-2.0,-1.7432647194773745,-1.7432647194773745,0.8716323597386871,-0.8674893634033586,6.514400361402377
5984,Tl2SnO3,Tl2SnO3_Va_O2,1.0258000000000005,-1.5003471177777783,2.269492997378121,3.0497117872618964,2.1812197588204363,1,79,Tl2SnO3_Va_O279,-2.0,-1.7432647194773745,-1.7432647194773745,0.8716323597386871,-0.8674893634033586,6.514400361402377
5987,Tl2SnO3,Tl2SnO3_Va_O2,1.0258000000000005,-1.5003471177777783,2.269492997378121,3.0497117872618964,0.0502668934221541,2,79,Tl2SnO3_Va_O279,-2.0,-1.7432647194773745,-1.7432647194773745,0.8716323597386871,-0.8674893634033586,6.514400361402377
5990,Tl2SnO3,Tl2SnO3_Va_O3,1.0258000000000005,-1.5003471177777783,2.1350711302464656,2.7594583476664427,3.502015750000007,0,95,Tl2SnO3_Va_O395,-2.0,-2.102816045934552,-2.102816045934552,1.051408022967276,-0.8674893634033586,8.184566071888547
5993,Tl2SnO3,Tl2SnO3_Va_O3,1.0258000000000005,-1.5003471177777783,2.1350711302464656,2.7594583476664427,1.6543793343947744,1,95,Tl2SnO3_Va_O395,-2.0,-2.102816045934552,-2.102816045934552,1.051408022967276,-0.8674893634033586,8.184566071888547
5996,Tl2SnO3,Tl2SnO3_Va_O3,1.0258000000000005,-1.5003471177777783,2.1350711302464656,2.7594583476664427,-0.2565093743339308,2,95,Tl2SnO3_Va_O395,-2.0,-2.102816045934552,-2.102816045934552,1.051408022967276,-0.8674893634033586,8.184566071888547
5999,Tl3AsO4,Tl3AsO4_Va_O1,2.3887999999999994,-1.43094984375,2.189259695498695,2.9767867868738405,2.9377982199999995,0,191,Tl3AsO4_Va_O1191,-2.0,-2.0588162143329676,-2.0588162143329676,1.0294081071664838,-0.6589084382122885,5.706979546468089
6000,Tl3AsO4,Tl3AsO4_Va_O2,2.3887999999999994,-1.43094984375,2.276416732341168,3.165970592802908,3.1999532999999563,0,179,Tl3AsO4_Va_O2179,-2.0,-2.208560758960203,-2.208560758960203,1.1042803794801015,-0.6589084382122885,7.611921496320161
6001,Tl3BO3,Tl3BO3_Va_O1,1.2292999999999998,-1.6481950663095244,2.065470055230187,3.884383397262264,5.23618161999992,0,279,Tl3BO3_Va_O1279,-2.0,-2.0165636706281367,-2.0165636706281367,1.0082818353140683,-0.8674893634033586,9.562516943577911
6003,Tl3BO3,Tl3BO3_Va_O1,1.2292999999999998,-1.6481950663095244,2.065470055230187,3.884383397262264,-0.224703075545317,2,279,Tl3BO3_Va_O1279,-2.0,-2.0165636706281367,-2.0165636706281367,1.0082818353140683,-0.8674893634033586,9.562516943577911
6005,Tl6Si2O7,Tl6Si2O7_Va_O1,1.2203999999999997,-1.905314270666666,2.1098998001661045,3.5557461656266147,5.26106272000005,0,239,Tl6Si2O7_Va_O1239,-2.0,-2.2336594193674415,-2.233659419367442,1.1168297096837208,-0.8674893634033586,9.900910536163547
6008,Tl6Si2O7,Tl6Si2O7_Va_O1,1.2203999999999997,-1.905314270666666,2.1098998001661045,3.5557461656266147,3.128913642018788,1,239,Tl6Si2O7_Va_O1239,-2.0,-2.2336594193674415,-2.233659419367442,1.1168297096837208,-0.8674893634033586,9.900910536163547
6011,Tl6Si2O7,Tl6Si2O7_Va_O1,1.2203999999999997,-1.905314270666666,2.1098998001661045,3.5557461656266147,0.9944575321542852,2,239,Tl6Si2O7_Va_O1239,-2.0,-2.2336594193674415,-2.233659419367442,1.1168297096837208,-0.8674893634033586,9.900910536163547
6014,Tl6Si2O7,Tl6Si2O7_Va_O2,1.2203999999999997,-1.905314270666666,2.2174035543785906,4.885201324285101,5.684946969999951,0,175,Tl6Si2O7_Va_O2175,-2.0,-2.2590553091318837,-2.4952728735778535,1.1295276545659418,-0.8674893634033586,10.883458192614377
6016,Tl6Si2O7,Tl6Si2O7_Va_O2,1.2203999999999997,-1.905314270666666,2.2174035543785906,4.885201324285101,0.2394090991427995,2,175,Tl6Si2O7_Va_O2175,-2.0,-2.2590553091318837,-2.4952728735778535,1.1295276545659418,-0.8674893634033586,10.883458192614377
6018,Tl6Si2O7,Tl6Si2O7_Va_O3,1.2203999999999997,-1.905314270666666,2.0677458606441865,3.5593257985599083,5.239845899999986,0,223,Tl6Si2O7_Va_O3223,-2.0,-2.218812613188557,-2.218812613188557,1.1094063065942783,-0.8674893634033586,9.835100637639925
6020,Tl6Si2O7,Tl6Si2O7_Va_O3,1.2203999999999997,-1.905314270666666,2.0677458606441865,3.5593257985599083,3.1228439744029854,1,223,Tl6Si2O7_Va_O3223,-2.0,-2.218812613188557,-2.218812613188557,1.1094063065942783,-0.8674893634033586,9.835100637639925
6022,TlSbO3,TlSbO3_Va_O1,2.3711,-1.7144332416666668,2.5046166686920737,3.2383319675300344,4.304137290000094,0,179,TlSbO3_Va_O1179,-2.0,-2.2159942064650733,-2.2159942064650733,1.1079971032325366,-0.5208045461292565,6.839477818454762
6025,TlSbO3,TlSbO3_Va_O1,2.3711,-1.7144332416666668,2.5046166686920737,3.2383319675300344,2.140484381720456,1,179,TlSbO3_Va_O1179,-2.0,-2.2159942064650733,-2.2159942064650733,1.1079971032325366,-0.5208045461292565,6.839477818454762
6028,TlSbO3,TlSbO3_Va_O1,2.3711,-1.7144332416666668,2.5046166686920737,3.2383319675300344,-0.2947829538391144,2,179,TlSbO3_Va_O1179,-2.0,-2.2159942064650733,-2.2159942064650733,1.1079971032325366,-0.5208045461292565,6.839477818454762