,formula,full_name,band_gap,formation_energy,nn_ave_eleneg,o2p_center_from_vbm,vacancy_formation_energy,charge,vacancy_index,merge_on,valence,bv_sum_Crystal,bv_sum_nn,BVS_ratio,vr_max,Eb_sum
4347,NaAlO2,NaAlO2_Va_O1,3.9174,-2.933970703512931,1.5016528031852792,1.7853031428518185,4.2878825243220575,2,215,NaAlO2_Va_O1215,-2.0,-1.9813712187374009,-2.0103641221976196,0.9906856093687004,-2.158566424325179,7.53576880103058
4350,NaAlO2,NaAlO2_Va_O2,3.9174,-2.933970703512931,1.530096251693467,1.726511145169398,6.918318899999926,0,287,NaAlO2_Va_O2287,-2.0,-2.0816745624411936,-2.081674562441193,1.0408372812205968,-2.158566424325179,7.917253502622112
4353,NaAlO2,NaAlO2_Va_O2,3.9174,-2.933970703512931,1.530096251693467,1.726511145169398,5.391848504393389,1,287,NaAlO2_Va_O2287,-2.0,-2.0816745624411936,-2.081674562441193,1.0408372812205968,-2.158566424325179,7.917253502622112
4356,NaAlO2,NaAlO2_Va_O2,3.9174,-2.933970703512931,1.530096251693467,1.726511145169398,3.848000822361166,2,287,NaAlO2_Va_O2287,-2.0,-2.0816745624411936,-2.081674562441193,1.0408372812205968,-2.158566424325179,7.917253502622112
4359,NaBO2,NaBO2_Va_O1,4.1874,-2.612621758929598,1.800791350867429,4.794958586711842,6.102864149999968,0,107,NaBO2_Va_O1107,-2.0,-2.0575832988982814,-2.0667915133525856,1.0287916494491407,-2.158566424325179,13.533772505144464
4361,NaBO2,NaBO2_Va_O1,4.1874,-2.612621758929598,1.800791350867429,4.794958586711842,3.449865133025346,1,107,NaBO2_Va_O1107,-2.0,-2.0575832988982814,-2.0667915133525856,1.0287916494491407,-2.158566424325179,13.533772505144464
4363,NaBO2,NaBO2_Va_O2,4.1874,-2.612621758929598,1.507964346670368,2.448975321494773,7.027633270000033,0,143,NaBO2_Va_O2143,-2.0,-1.2358799087663763,-1.8846977482296536,0.6179399543831882,-2.158566424325179,3.3594199852816535
4366,NaBO2,NaBO2_Va_O2,4.1874,-2.612621758929598,1.507964346670368,2.448975321494773,5.027853391896677,1,143,NaBO2_Va_O2143,-2.0,-1.2358799087663763,-1.8846977482296536,0.6179399543831882,-2.158566424325179,3.3594199852816535
4369,NaBO2,NaBO2_Va_O2,4.1874,-2.612621758929598,1.507964346670368,2.448975321494773,3.159189672308093,2,143,NaBO2_Va_O2143,-2.0,-1.2358799087663763,-1.8846977482296536,0.6179399543831882,-2.158566424325179,3.3594199852816535
4372,NaBe4SbO7,NaBe4SbO7_Va_O1,3.5778,-2.711356884350132,1.941668185879593,2.7014986752753343,5.391052350000232,0,467,NaBe4SbO7_Va_O1467,-2.0,-1.9324237911180673,-2.0473254576817226,0.9662118955590336,-0.5208045461292565,8.241619740329249
4375,NaBe4SbO7,NaBe4SbO7_Va_O1,3.5778,-2.711356884350132,1.941668185879593,2.7014986752753343,3.1206448235442004,1,467,NaBe4SbO7_Va_O1467,-2.0,-1.9324237911180673,-2.0473254576817226,0.9662118955590336,-0.5208045461292565,8.241619740329249
4378,NaBe4SbO7,NaBe4SbO7_Va_O1,3.5778,-2.711356884350132,1.941668185879593,2.7014986752753343,1.009516681153162,2,467,NaBe4SbO7_Va_O1467,-2.0,-1.9324237911180673,-2.0473254576817226,0.9662118955590336,-0.5208045461292565,8.241619740329249
4381,NaBe4SbO7,NaBe4SbO7_Va_O2,3.5778,-2.711356884350132,1.7424837757829752,3.0993121486146733,8.063918420000286,0,269,NaBe4SbO7_Va_O2269,-2.0,-1.7031327066099284,-1.7139388782638456,0.8515663533049642,-0.5208045461292565,10.419753873925648
4384,NaBe4SbO7,NaBe4SbO7_Va_O2,3.5778,-2.711356884350132,1.7424837757829752,3.0993121486146733,5.011200259833176,1,269,NaBe4SbO7_Va_O2269,-2.0,-1.7031327066099284,-1.7139388782638456,0.8515663533049642,-0.5208045461292565,10.419753873925648
4387,NaBe4SbO7,NaBe4SbO7_Va_O2,3.5778,-2.711356884350132,1.7424837757829752,3.0993121486146733,2.018985503737561,2,269,NaBe4SbO7_Va_O2269,-2.0,-1.7031327066099284,-1.7139388782638456,0.8515663533049642,-0.5208045461292565,10.419753873925648
4390,NaBe4SbO7,NaBe4SbO7_Va_O3,3.5778,-2.711356884350132,1.9372572126615384,2.725431937952296,5.474758600000209,0,431,NaBe4SbO7_Va_O3431,-2.0,-1.935651647898682,-2.0517926738772303,0.967825823949341,-0.5208045461292565,8.255386269329948
4393,NaBe4SbO7,NaBe4SbO7_Va_O3,3.5778,-2.711356884350132,1.9372572126615384,2.725431937952296,3.1862012307484875,1,431,NaBe4SbO7_Va_O3431,-2.0,-1.935651647898682,-2.0517926738772303,0.967825823949341,-0.5208045461292565,8.255386269329948
4396,NaBe4SbO7,NaBe4SbO7_Va_O3,3.5778,-2.711356884350132,1.9372572126615384,2.725431937952296,1.05018299364996,2,431,NaBe4SbO7_Va_O3431,-2.0,-1.935651647898682,-2.0517926738772303,0.967825823949341,-0.5208045461292565,8.255386269329948
4399,NaBiO2,NaBiO2_Va_O1,0.8683999999999994,-1.7202619228879303,1.6366443656571326,2.7247514926830427,4.0020247000000015,0,127,NaBiO2_Va_O1127,-2.0,-1.8289802410705855,-1.8289802410705855,0.9144901205352928,-0.9858147743813158,7.638363960443952
4402,NaBiO2,NaBiO2_Va_O1,0.8683999999999994,-1.7202619228879303,1.6366443656571326,2.7247514926830427,2.109334041238122,1,127,NaBiO2_Va_O1127,-2.0,-1.8289802410705855,-1.8289802410705855,0.9144901205352928,-0.9858147743813158,7.638363960443952
4405,NaBiO2,NaBiO2_Va_O1,0.8683999999999994,-1.7202619228879303,1.6366443656571326,2.7247514926830427,-0.0112413228884338,2,127,NaBiO2_Va_O1127,-2.0,-1.8289802410705855,-1.8289802410705855,0.9144901205352928,-0.9858147743813158,7.638363960443952
4412,NaCaAsO4,NaCaAsO4_Va_O1,3.6764,-2.503265028793104,1.8405279615041128,1.9926960198065855,3.669831690000033,0,63,NaCaAsO4_Va_O163,-2.0,-2.2004603967196465,-2.2004603967196465,1.1002301983598233,-0.6589084382122885,7.662422264345407
4415,NaCaAsO4,NaCaAsO4_Va_O1,3.6764,-2.503265028793104,1.8405279615041128,1.9926960198065855,2.6314755891546113,1,63,NaCaAsO4_Va_O163,-2.0,-2.2004603967196465,-2.2004603967196465,1.1002301983598233,-0.6589084382122885,7.662422264345407
4418,NaCaAsO4,NaCaAsO4_Va_O1,3.6764,-2.503265028793104,1.8405279615041128,1.9926960198065855,2.431313552558543,2,63,NaCaAsO4_Va_O163,-2.0,-2.2004603967196465,-2.2004603967196465,1.1002301983598233,-0.6589084382122885,7.662422264345407
4421,NaCaAsO4,NaCaAsO4_Va_O2,3.6764,-2.503265028793104,1.8789918512128596,2.126140341009416,3.481432159999949,0,79,NaCaAsO4_Va_O279,-2.0,-2.117687961859915,-2.117687961859915,1.0588439809299577,-0.6589084382122885,7.374192878945525
4423,NaCaAsO4,NaCaAsO4_Va_O2,3.6764,-2.503265028793104,1.8789918512128596,2.126140341009416,2.427334317465111,1,79,NaCaAsO4_Va_O279,-2.0,-2.117687961859915,-2.117687961859915,1.0588439809299577,-0.6589084382122885,7.374192878945525
4425,NaCaAsO4,NaCaAsO4_Va_O3,3.6764,-2.503265028793104,1.9528537329280056,2.0447384729771314,3.8879402999999777,0,111,NaCaAsO4_Va_O3111,-2.0,-2.087548723688261,-2.087548723688261,1.0437743618441304,-0.6589084382122885,7.995381960853512
4428,NaCaAsO4,NaCaAsO4_Va_O3,3.6764,-2.503265028793104,1.9528537329280056,2.0447384729771314,2.6316189929604032,1,111,NaCaAsO4_Va_O3111,-2.0,-2.087548723688261,-2.087548723688261,1.0437743618441304,-0.6589084382122885,7.995381960853512
4431,NaCaAsO4,NaCaAsO4_Va_O3,3.6764,-2.503265028793104,1.9528537329280056,2.0447384729771314,0.5606516359756695,2,111,NaCaAsO4_Va_O3111,-2.0,-2.087548723688261,-2.087548723688261,1.0437743618441304,-0.6589084382122885,7.995381960853512
4434,NaGaO2,NaGaO2_Va_O1,2.9321,-2.2214824766379304,1.5959280894452252,1.7539251355139929,4.927023199999789,0,215,NaGaO2_Va_O1215,-2.0,-1.895796762364062,-1.8957967623640624,0.9478983811820312,-1.8812876656363955,6.847236162221186
4437,NaGaO2,NaGaO2_Va_O1,2.9321,-2.2214824766379304,1.5959280894452252,1.7539251355139929,3.781780070850792,1,215,NaGaO2_Va_O1215,-2.0,-1.895796762364062,-1.8957967623640624,0.9478983811820312,-1.8812876656363955,6.847236162221186
4440,NaGaO2,NaGaO2_Va_O1,2.9321,-2.2214824766379304,1.5959280894452252,1.7539251355139929,2.1323759544352616,2,215,NaGaO2_Va_O1215,-2.0,-1.895796762364062,-1.8957967623640624,0.9478983811820312,-1.8812876656363955,6.847236162221186
4443,NaGaO2,NaGaO2_Va_O2,2.9321,-2.2214824766379304,1.5658864972153843,1.7928204070167568,5.038493759999833,0,287,NaGaO2_Va_O2287,-2.0,-1.8154886565792605,-1.8154886565792605,0.9077443282896304,-1.8812876656363955,6.557179455212433
4446,NaGaO2,NaGaO2_Va_O2,2.9321,-2.2214824766379304,1.5658864972153843,1.7928204070167568,3.77296989972817,1,287,NaGaO2_Va_O2287,-2.0,-1.8154886565792605,-1.8154886565792605,0.9077443282896304,-1.8812876656363955,6.557179455212433
4449,NaGaO2,NaGaO2_Va_O2,2.9321,-2.2214824766379304,1.5658864972153843,1.7928204070167568,2.2601540038560555,2,287,NaGaO2_Va_O2287,-2.0,-1.8154886565792605,-1.8154886565792605,0.9077443282896304,-1.8812876656363955,6.557179455212433
4452,NaGeSbO5,NaGeSbO5_Va_O1,2.1107,-2.0808606433189665,2.5932904205604874,2.2361883546979664,3.935986659999921,0,127,NaGeSbO5_Va_O1127,-2.0,-2.501543176760287,-2.501543176760287,1.2507715883801436,-0.5208045461292565,7.460468500676389
4455,NaGeSbO5,NaGeSbO5_Va_O1,2.1107,-2.0808606433189665,2.5932904205604874,2.2361883546979664,2.3600796742538632,1,127,NaGeSbO5_Va_O1127,-2.0,-2.501543176760287,-2.501543176760287,1.2507715883801436,-0.5208045461292565,7.460468500676389
4458,NaGeSbO5,NaGeSbO5_Va_O1,2.1107,-2.0808606433189665,2.5932904205604874,2.2361883546979664,0.6738021738891748,2,127,NaGeSbO5_Va_O1127,-2.0,-2.501543176760287,-2.501543176760287,1.2507715883801436,-0.5208045461292565,7.460468500676389
4461,NaGeSbO5,NaGeSbO5_Va_O2,2.1107,-2.0808606433189665,2.2647957572540687,2.646514442124263,4.077095010000116,0,191,NaGeSbO5_Va_O2191,-2.0,-2.194393420072848,-2.194393420072848,1.097196710036424,-0.5208045461292565,9.28141148936964
4464,NaGeSbO5,NaGeSbO5_Va_O2,2.1107,-2.0808606433189665,2.2647957572540687,2.646514442124263,2.475917651103239,1,191,NaGeSbO5_Va_O2191,-2.0,-2.194393420072848,-2.194393420072848,1.097196710036424,-0.5208045461292565,9.28141148936964
4467,NaGeSbO5,NaGeSbO5_Va_O2,2.1107,-2.0808606433189665,2.2647957572540687,2.646514442124263,-0.1917848977878734,2,191,NaGeSbO5_Va_O2191,-2.0,-2.194393420072848,-2.194393420072848,1.097196710036424,-0.5208045461292565,9.28141148936964
4470,NaGeSbO5,NaGeSbO5_Va_O3,2.1107,-2.0808606433189665,2.3735590324656877,2.499235729266061,4.121645650000014,0,255,NaGeSbO5_Va_O3255,-2.0,-2.0965153742745035,-2.0965153742745035,1.0482576871372518,-0.5208045461292565,7.671336965188046
4473,NaGeSbO5,NaGeSbO5_Va_O3,2.1107,-2.0808606433189665,2.3735590324656877,2.499235729266061,2.510485336927288,1,255,NaGeSbO5_Va_O3255,-2.0,-2.0965153742745035,-2.0965153742745035,1.0482576871372518,-0.5208045461292565,7.671336965188046
4476,NaGeSbO5,NaGeSbO5_Va_O3,2.1107,-2.0808606433189665,2.3735590324656877,2.499235729266061,-0.5835443574899964,2,255,NaGeSbO5_Va_O3255,-2.0,-2.0965153742745035,-2.0965153742745035,1.0482576871372518,-0.5208045461292565,7.671336965188046
4479,NaIn(GeO3)2,NaIn(GeO3)2_Va_O1,2.2328,-2.127569738655173,2.3141272338567744,1.7247028897549397,3.7977860399999575,0,47,NaIn(GeO3)2_Va_O147,-2.0,-1.762922522240298,-1.762922522240298,0.881461261120149,-1.502819088333178,5.972812261731141
4482,NaIn(GeO3)2,NaIn(GeO3)2_Va_O1,2.2328,-2.127569738655173,2.3141272338567744,1.7247028897549397,2.8199290379511712,1,47,NaIn(GeO3)2_Va_O147,-2.0,-1.762922522240298,-1.762922522240298,0.881461261120149,-1.502819088333178,5.972812261731141
4485,NaIn(GeO3)2,NaIn(GeO3)2_Va_O1,2.2328,-2.127569738655173,2.3141272338567744,1.7247028897549397,0.3255875939313384,2,47,NaIn(GeO3)2_Va_O147,-2.0,-1.762922522240298,-1.762922522240298,0.881461261120149,-1.502819088333178,5.972812261731141
4488,NaIn(GeO3)2,NaIn(GeO3)2_Va_O2,2.2328,-2.127569738655173,2.2469402252806696,2.4611478309729655,4.373651269999991,0,63,NaIn(GeO3)2_Va_O263,-2.0,-1.8650944604365576,-1.8650944604365576,0.9325472302182788,-1.502819088333178,8.062546584069162
4491,NaIn(GeO3)2,NaIn(GeO3)2_Va_O2,2.2328,-2.127569738655173,2.2469402252806696,2.4611478309729655,2.6180471242303813,1,63,NaIn(GeO3)2_Va_O263,-2.0,-1.8650944604365576,-1.8650944604365576,0.9325472302182788,-1.502819088333178,8.062546584069162
4494,NaIn(GeO3)2,NaIn(GeO3)2_Va_O2,2.2328,-2.127569738655173,2.2469402252806696,2.4611478309729655,0.4261039168644658,2,63,NaIn(GeO3)2_Va_O263,-2.0,-1.8650944604365576,-1.8650944604365576,0.9325472302182788,-1.502819088333178,8.062546584069162
4497,NaIn(GeO3)2,NaIn(GeO3)2_Va_O3,2.2328,-2.127569738655173,2.2472316493621367,2.783870360184764,4.102513089999954,0,79,NaIn(GeO3)2_Va_O379,-2.0,-1.8212167596966329,-1.9438349279126368,0.9106083798483164,-1.502819088333178,6.85746222927803
4500,NaIn(GeO3)2,NaIn(GeO3)2_Va_O3,2.2328,-2.127569738655173,2.2472316493621367,2.783870360184764,2.68223540533882,1,79,NaIn(GeO3)2_Va_O379,-2.0,-1.8212167596966329,-1.9438349279126368,0.9106083798483164,-1.502819088333178,6.85746222927803
4503,NaIn(GeO3)2,NaIn(GeO3)2_Va_O3,2.2328,-2.127569738655173,2.2472316493621367,2.783870360184764,-1.8376801303409505,2,79,NaIn(GeO3)2_Va_O379,-2.0,-1.8212167596966329,-1.9438349279126368,0.9106083798483164,-1.502819088333178,6.85746222927803
4506,NaIn(SiO3)2,NaIn(SiO3)2_Va_O1,3.5292,-2.8000169371551724,2.279725300825057,1.9256079806937965,5.579766739999977,0,71,NaIn(SiO3)2_Va_O171,-2.0,-2.0919965292528246,-2.0919965292528246,1.0459982646264123,-1.5993795332042406,8.188512786110245
4509,NaIn(SiO3)2,NaIn(SiO3)2_Va_O1,3.5292,-2.8000169371551724,2.279725300825057,1.9256079806937965,4.444288631885899,1,71,NaIn(SiO3)2_Va_O171,-2.0,-2.0919965292528246,-2.0919965292528246,1.0459982646264123,-1.5993795332042406,8.188512786110245
4512,NaIn(SiO3)2,NaIn(SiO3)2_Va_O1,3.5292,-2.8000169371551724,2.279725300825057,1.9256079806937965,1.5281772250923094,2,71,NaIn(SiO3)2_Va_O171,-2.0,-2.0919965292528246,-2.0919965292528246,1.0459982646264123,-1.5993795332042406,8.188512786110245
4515,NaIn(SiO3)2,NaIn(SiO3)2_Va_O2,3.5292,-2.8000169371551724,2.213274541877889,3.4063354472321494,6.589835279999997,0,79,NaIn(SiO3)2_Va_O279,-2.0,-2.2464202421064003,-2.38012433584456,1.1232101210532002,-1.5993795332042406,10.822586188650218
4517,NaIn(SiO3)2,NaIn(SiO3)2_Va_O2,3.5292,-2.8000169371551724,2.213274541877889,3.4063354472321494,4.455330463321952,1,79,NaIn(SiO3)2_Va_O279,-2.0,-2.2464202421064003,-2.38012433584456,1.1232101210532002,-1.5993795332042406,10.822586188650218
4519,NaIn(SiO3)2,NaIn(SiO3)2_Va_O3,3.5292,-2.8000169371551724,2.2131725069134935,2.701722385377934,6.006346289999906,0,75,NaIn(SiO3)2_Va_O375,-2.0,-2.0999334860871435,-2.099933486087143,1.0499667430435715,-1.5993795332042406,10.18269177306266
4521,NaIn(SiO3)2,NaIn(SiO3)2_Va_O3,3.5292,-2.8000169371551724,2.2131725069134935,2.701722385377934,4.071183060651412,1,75,NaIn(SiO3)2_Va_O375,-2.0,-2.0999334860871435,-2.099933486087143,1.0499667430435715,-1.5993795332042406,10.18269177306266
4523,NaInO2,NaInO2_Va_O1,2.0346,-1.9855354266379308,1.4896520697887778,1.4689325051693,4.776153229999986,0,299,NaInO2_Va_O1299,-2.0,-1.5339890421072908,-1.5339890421072906,0.7669945210536454,-1.5993795332042406,6.927607578720945
4526,NaInO2,NaInO2_Va_O1,2.0346,-1.9855354266379308,1.4896520697887778,1.4689325051693,3.1188850934830707,1,299,NaInO2_Va_O1299,-2.0,-1.5339890421072908,-1.5339890421072906,0.7669945210536454,-1.5993795332042406,6.927607578720945
4529,NaInO2,NaInO2_Va_O1,2.0346,-1.9855354266379308,1.4896520697887778,1.4689325051693,1.7224277786404856,2,299,NaInO2_Va_O1299,-2.0,-1.5339890421072908,-1.5339890421072906,0.7669945210536454,-1.5993795332042406,6.927607578720945
4532,NaLi2AsO4,NaLi2AsO4_Va_O1,4.0055,-2.203138256027299,1.4650899255378942,1.9616465792613036,3.9251148600000167,0,197,NaLi2AsO4_Va_O1197,-2.0,-1.98400392647879,-2.03209607536343,0.992001963239395,-0.6589084382122885,6.944848686728791
4535,NaLi2AsO4,NaLi2AsO4_Va_O1,4.0055,-2.203138256027299,1.4650899255378942,1.9616465792613036,2.7057000669586477,1,197,NaLi2AsO4_Va_O1197,-2.0,-1.98400392647879,-2.03209607536343,0.992001963239395,-0.6589084382122885,6.944848686728791
4538,NaLi2AsO4,NaLi2AsO4_Va_O1,4.0055,-2.203138256027299,1.4650899255378942,1.9616465792613036,1.775359102406524,2,197,NaLi2AsO4_Va_O1197,-2.0,-1.98400392647879,-2.03209607536343,0.992001963239395,-0.6589084382122885,6.944848686728791
4541,NaLi2AsO4,NaLi2AsO4_Va_O2,4.0055,-2.203138256027299,1.4950303350020404,1.9112830083684105,3.6082889699999985,0,215,NaLi2AsO4_Va_O2215,-2.0,-2.035959983623941,-2.0359599836239415,1.0179799918119703,-0.6589084382122885,7.126716751814982
4544,NaLi2AsO4,NaLi2AsO4_Va_O2,4.0055,-2.203138256027299,1.4950303350020404,1.9112830083684105,2.4702863419340257,1,215,NaLi2AsO4_Va_O2215,-2.0,-2.035959983623941,-2.0359599836239415,1.0179799918119703,-0.6589084382122885,7.126716751814982
4547,NaLi2AsO4,NaLi2AsO4_Va_O2,4.0055,-2.203138256027299,1.4950303350020404,1.9112830083684105,1.0976632392442025,2,215,NaLi2AsO4_Va_O2215,-2.0,-2.035959983623941,-2.0359599836239415,1.0179799918119703,-0.6589084382122885,7.126716751814982
4550,NaLi2AsO4,NaLi2AsO4_Va_O3,4.0055,-2.203138256027299,1.498049076386039,1.959845786892404,3.875257049999968,0,287,NaLi2AsO4_Va_O3287,-2.0,-2.187547206278425,-2.187547206278425,1.0937736031392125,-0.6589084382122885,7.657335824754662
4553,NaLi2AsO4,NaLi2AsO4_Va_O3,4.0055,-2.203138256027299,1.498049076386039,1.959845786892404,2.7162845923653016,1,287,NaLi2AsO4_Va_O3287,-2.0,-2.187547206278425,-2.187547206278425,1.0937736031392125,-0.6589084382122885,7.657335824754662
4556,NaLi2AsO4,NaLi2AsO4_Va_O3,4.0055,-2.203138256027299,1.498049076386039,1.959845786892404,1.7297448192961613,2,287,NaLi2AsO4_Va_O3287,-2.0,-2.187547206278425,-2.187547206278425,1.0937736031392125,-0.6589084382122885,7.657335824754662
4559,NaSbO3,NaSbO3_Va_O1,2.8378,-2.0606511693103453,2.18834731319333,1.829437473272837,4.3775729500001805,0,269,NaSbO3_Va_O1269,-2.0,-2.2391830002331927,-2.2391830002331927,1.1195915001165964,-0.5208045461292565,7.955502603427453
4562,NaSbO3,NaSbO3_Va_O1,2.8378,-2.0606511693103453,2.18834731319333,1.829437473272837,2.532163427688097,1,269,NaSbO3_Va_O1269,-2.0,-2.2391830002331927,-2.2391830002331927,1.1195915001165964,-0.5208045461292565,7.955502603427453
4565,NaSbO3,NaSbO3_Va_O1,2.8378,-2.0606511693103453,2.18834731319333,1.829437473272837,0.8217875078687809,2,269,NaSbO3_Va_O1269,-2.0,-2.2391830002331927,-2.2391830002331927,1.1195915001165964,-0.5208045461292565,7.955502603427453
4577,NaSr3SbO6,NaSr3SbO6_Va_O1,3.0766,-2.73731709877743,1.625800969881972,1.7209207333197578,5.092019360000004,0,65,NaSr3SbO6_Va_O165,-2.0,-1.8846949957250048,-1.8846949957250052,0.9423474978625024,-0.5208045461292565,9.916597159323146
4580,NaSr3SbO6,NaSr3SbO6_Va_O1,3.0766,-2.73731709877743,1.625800969881972,1.7209207333197578,3.40815680704407,1,65,NaSr3SbO6_Va_O165,-2.0,-1.8846949957250048,-1.8846949957250052,0.9423474978625024,-0.5208045461292565,9.916597159323146
4583,NaSr3SbO6,NaSr3SbO6_Va_O1,3.0766,-2.73731709877743,1.625800969881972,1.7209207333197578,1.8987659682510012,2,65,NaSr3SbO6_Va_O165,-2.0,-1.8846949957250048,-1.8846949957250052,0.9423474978625024,-0.5208045461292565,9.916597159323146
4586,NaSrBO3,NaSrBO3_Va_O1,3.9354,-2.8850838603975086,1.542672078844625,2.5679524233447135,6.929889349999835,0,431,NaSrBO3_Va_O1431,-2.0,-0.983059658573532,-1.9059718243165624,0.491529829286766,-2.158566424325179,2.672193503843398
4589,NaSrBO3,NaSrBO3_Va_O1,3.9354,-2.8850838603975086,1.542672078844625,2.5679524233447135,4.3308583475166635,1,431,NaSrBO3_Va_O1431,-2.0,-0.983059658573532,-1.9059718243165624,0.491529829286766,-2.158566424325179,2.672193503843398
4592,NaSrBO3,NaSrBO3_Va_O1,3.9354,-2.8850838603975086,1.542672078844625,2.5679524233447135,1.9292052875379873,2,431,NaSrBO3_Va_O1431,-2.0,-0.983059658573532,-1.9059718243165624,0.491529829286766,-2.158566424325179,2.672193503843398
4595,NaSrBO3,NaSrBO3_Va_O2,3.9354,-2.8850838603975086,1.530719698052853,2.576553371972847,6.9462073200001075,0,413,NaSrBO3_Va_O2413,-2.0,-0.9762223376473153,-1.8938510404289883,0.4881111688236576,-2.158566424325179,2.6536080147498464
4598,NaSrBO3,NaSrBO3_Va_O2,3.9354,-2.8850838603975086,1.530719698052853,2.576553371972847,4.32787470985864,1,413,NaSrBO3_Va_O2413,-2.0,-0.9762223376473153,-1.8938510404289883,0.4881111688236576,-2.158566424325179,2.6536080147498464