,formula,full_name,band_gap,formation_energy,nn_ave_eleneg,o2p_center_from_vbm,vacancy_formation_energy,charge,vacancy_index,merge_on,valence,bv_sum_Crystal,bv_sum_nn,BVS_ratio,vr_max,Eb_sum
3367,LiAlO2,LiAlO2_Va_O1,4.6288,-3.082882981458333,1.4296001480574805,1.921063569350896,7.037490029999967,0,255,LiAlO2_Va_O1255,-2.0,-1.9986640410896948,-1.9986640410896948,0.9993320205448474,-2.8945619964631555,8.333196824067425
3370,LiAlO2,LiAlO2_Va_O1,4.6288,-3.082882981458333,1.4296001480574805,1.921063569350896,5.3113964874873085,1,255,LiAlO2_Va_O1255,-2.0,-1.9986640410896948,-1.9986640410896948,0.9993320205448474,-2.8945619964631555,8.333196824067425
3373,LiAlO2,LiAlO2_Va_O1,4.6288,-3.082882981458333,1.4296001480574805,1.921063569350896,3.6133429573996856,2,255,LiAlO2_Va_O1255,-2.0,-1.9986640410896948,-1.9986640410896948,0.9993320205448474,-2.8945619964631555,8.333196824067425
3376,LiAsO3,LiAsO3_Va_O1,3.650700000000001,-1.986835451666666,2.233158903361803,2.5089847451795455,4.2880212300000355,0,269,LiAsO3_Va_O1269,-2.0,-2.097389491634955,-2.0973894916349556,1.0486947458174776,-0.6589084382122885,9.129340884273898
3379,LiAsO3,LiAsO3_Va_O1,3.650700000000001,-1.986835451666666,2.233158903361803,2.5089847451795455,1.833802127280544,1,269,LiAsO3_Va_O1269,-2.0,-2.097389491634955,-2.0973894916349556,1.0486947458174776,-0.6589084382122885,9.129340884273898
3382,LiAsO3,LiAsO3_Va_O1,3.650700000000001,-1.986835451666666,2.233158903361803,2.5089847451795455,-0.8781958849960193,2,269,LiAsO3_Va_O1269,-2.0,-2.097389491634955,-2.0973894916349556,1.0486947458174776,-0.6589084382122885,9.129340884273898
3385,LiBO2,LiBO2_Va_O1,5.501,-2.7379905412500003,2.017867839658265,3.950952674776848,6.6961414100000045,0,143,LiBO2_Va_O1143,-2.0,-2.0570515897925037,-2.0627837333535597,1.0285257948962518,-2.1905056483979153,12.733216570546531
3388,LiBO2,LiBO2_Va_O1,5.501,-2.7379905412500003,2.017867839658265,3.950952674776848,4.363379278611207,1,143,LiBO2_Va_O1143,-2.0,-2.0570515897925037,-2.0627837333535597,1.0285257948962518,-2.1905056483979153,12.733216570546531
3391,LiBO2,LiBO2_Va_O1,5.501,-2.7379905412500003,2.017867839658265,3.950952674776848,1.3153154053380676,2,143,LiBO2_Va_O1143,-2.0,-2.0570515897925037,-2.0627837333535597,1.0285257948962518,-2.1905056483979153,12.733216570546531
3394,LiBO2,LiBO2_Va_O2,5.501,-2.7379905412500003,1.380511775489672,2.1398734688602414,7.27266962000011,0,191,LiBO2_Va_O2191,-2.0,-1.8456309892819849,-1.885109728004164,0.9228154946409924,-2.1905056483979153,9.189195222790403
3397,LiBO2,LiBO2_Va_O2,5.501,-2.7379905412500003,1.380511775489672,2.1398734688602414,5.160450099693747,1,191,LiBO2_Va_O2191,-2.0,-1.8456309892819849,-1.885109728004164,0.9228154946409924,-2.1905056483979153,9.189195222790403
3400,LiBO2,LiBO2_Va_O2,5.501,-2.7379905412500003,1.380511775489672,2.1398734688602414,2.7721472049176428,2,191,LiBO2_Va_O2191,-2.0,-1.8456309892819849,-1.885109728004164,0.9228154946409924,-2.1905056483979153,9.189195222790403
3403,LiGaO2,LiGaO2_Va_O1,3.2567000000000004,-2.3788747770833334,1.5743574027522462,2.0062090249688924,5.0219176399999785,0,215,LiGaO2_Va_O1215,-2.0,-1.7885136938224804,-1.7885136938224806,0.8942568469112402,-1.8812876656363955,7.114478896112728
3406,LiGaO2,LiGaO2_Va_O1,3.2567000000000004,-2.3788747770833334,1.5743574027522462,2.0062090249688924,3.718531280734654,1,215,LiGaO2_Va_O1215,-2.0,-1.7885136938224804,-1.7885136938224806,0.8942568469112402,-1.8812876656363955,7.114478896112728
3409,LiGaO2,LiGaO2_Va_O1,3.2567000000000004,-2.3788747770833334,1.5743574027522462,2.0062090249688924,1.8027162624249424,2,215,LiGaO2_Va_O1215,-2.0,-1.7885136938224804,-1.7885136938224806,0.8942568469112402,-1.8812876656363955,7.114478896112728
3412,LiGaO2,LiGaO2_Va_O2,3.2567000000000004,-2.3788747770833334,1.5232149763392335,2.0266717357714397,5.0092752899999,0,287,LiGaO2_Va_O2287,-2.0,-1.7884790918573383,-1.7884790918573383,0.8942395459286692,-1.8812876656363955,7.1143412539176385
3415,LiGaO2,LiGaO2_Va_O2,3.2567000000000004,-2.3788747770833334,1.5232149763392335,2.0266717357714397,3.67421222321705,1,287,LiGaO2_Va_O2287,-2.0,-1.7884790918573383,-1.7884790918573383,0.8942395459286692,-1.8812876656363955,7.1143412539176385
3418,LiGaO2,LiGaO2_Va_O2,3.2567000000000004,-2.3788747770833334,1.5232149763392335,2.0266717357714397,1.98229145822036,2,287,LiGaO2_Va_O2287,-2.0,-1.7884790918573383,-1.7884790918573383,0.8942395459286692,-1.8812876656363955,7.1143412539176385
3421,LiGeBO4,LiGeBO4_Va_O1,4.3668,-2.4948268210714293,2.1423009090226213,2.7284502198952163,4.87529953999991,0,251,LiGeBO4_Va_O1251,-2.0,-1.9142952150970656,-1.923085865588424,0.9571476075485328,-1.502819088333178,10.249999516788934
3424,LiGeBO4,LiGeBO4_Va_O1,4.3668,-2.4948268210714293,2.1423009090226213,2.7284502198952163,2.572869204346727,1,251,LiGeBO4_Va_O1251,-2.0,-1.9142952150970656,-1.923085865588424,0.9571476075485328,-1.502819088333178,10.249999516788934
3427,LiGeBO4,LiGeBO4_Va_O1,4.3668,-2.4948268210714293,2.1423009090226213,2.7284502198952163,0.2278817313932823,2,251,LiGeBO4_Va_O1251,-2.0,-1.9142952150970656,-1.923085865588424,0.9571476075485328,-1.502819088333178,10.249999516788934
3430,LiInGeO4,LiInGeO4_Va_O1,2.1927000000000003,-2.173107275119047,2.179260467474238,2.3440319972379275,4.404819460000008,0,111,LiInGeO4_Va_O1111,-2.0,-1.7253380044407811,-1.7253380044407811,0.8626690022203907,-1.502819088333178,7.774198977690482
3433,LiInGeO4,LiInGeO4_Va_O1,2.1927000000000003,-2.173107275119047,2.179260467474238,2.3440319972379275,2.6099674851999417,1,111,LiInGeO4_Va_O1111,-2.0,-1.7253380044407811,-1.7253380044407811,0.8626690022203907,-1.502819088333178,7.774198977690482
3436,LiInGeO4,LiInGeO4_Va_O1,2.1927000000000003,-2.173107275119047,2.179260467474238,2.3440319972379275,-0.4259494999170857,2,111,LiInGeO4_Va_O1111,-2.0,-1.7253380044407811,-1.7253380044407811,0.8626690022203907,-1.502819088333178,7.774198977690482
3439,LiInGeO4,LiInGeO4_Va_O2,2.1927000000000003,-2.173107275119047,1.9411984979021404,2.1485906027408217,3.863960669999992,0,95,LiInGeO4_Va_O295,-2.0,-1.7381365527611885,-1.7381365527611885,0.8690682763805943,-1.502819088333178,7.516752331736339
3442,LiInGeO4,LiInGeO4_Va_O2,2.1927000000000003,-2.173107275119047,1.9411984979021404,2.1485906027408217,2.462921302607313,1,95,LiInGeO4_Va_O295,-2.0,-1.7381365527611885,-1.7381365527611885,0.8690682763805943,-1.502819088333178,7.516752331736339
3445,LiInGeO4,LiInGeO4_Va_O2,2.1927000000000003,-2.173107275119047,1.9411984979021404,2.1485906027408217,0.8516604951266005,2,95,LiInGeO4_Va_O295,-2.0,-1.7381365527611885,-1.7381365527611885,0.8690682763805943,-1.502819088333178,7.516752331736339
3448,LiInGeO4,LiInGeO4_Va_O3,2.1927000000000003,-2.173107275119047,1.9675439401673396,1.935897082154968,3.824830659999984,0,107,LiInGeO4_Va_O3107,-2.0,-1.68108622240478,-1.68108622240478,0.84054311120239,-1.502819088333178,7.270032243460409
3451,LiInGeO4,LiInGeO4_Va_O3,2.1927000000000003,-2.173107275119047,1.9675439401673396,1.935897082154968,2.5773024485981955,1,107,LiInGeO4_Va_O3107,-2.0,-1.68108622240478,-1.68108622240478,0.84054311120239,-1.502819088333178,7.270032243460409
3454,LiInGeO4,LiInGeO4_Va_O3,2.1927000000000003,-2.173107275119047,1.9675439401673396,1.935897082154968,1.3331370376094045,2,107,LiInGeO4_Va_O3107,-2.0,-1.68108622240478,-1.68108622240478,0.84054311120239,-1.502819088333178,7.270032243460409
3457,LiInO2,LiInO2_Va_O1,1.9281999999999997,-2.0632245620833327,1.4302139050490523,1.639714659382878,4.779716080000023,0,63,LiInO2_Va_O163,-2.0,-1.436255824413595,-1.436255824413595,0.7181279122067975,-1.5993795332042406,7.274900087669636
3460,LiInO2,LiInO2_Va_O1,1.9281999999999997,-2.0632245620833327,1.4302139050490523,1.639714659382878,2.8487626147824177,1,63,LiInO2_Va_O163,-2.0,-1.436255824413595,-1.436255824413595,0.7181279122067975,-1.5993795332042406,7.274900087669636
3463,LiInO2,LiInO2_Va_O1,1.9281999999999997,-2.0632245620833327,1.4302139050490523,1.639714659382878,0.920767508380906,2,63,LiInO2_Va_O163,-2.0,-1.436255824413595,-1.436255824413595,0.7181279122067975,-1.5993795332042406,7.274900087669636
3466,LiInSiO4,LiInSiO4_Va_O1,3.0281,-2.6540285472619045,2.1348981284626527,2.615830962606502,5.793107670000049,0,111,LiInSiO4_Va_O1111,-2.0,-1.978054633768254,-1.978054633768254,0.989027316884127,-1.5993795332042406,9.953751334936525
3469,LiInSiO4,LiInSiO4_Va_O1,3.0281,-2.6540285472619045,2.1348981284626527,2.615830962606502,3.727348483813985,1,111,LiInSiO4_Va_O1111,-2.0,-1.978054633768254,-1.978054633768254,0.989027316884127,-1.5993795332042406,9.953751334936525
3472,LiInSiO4,LiInSiO4_Va_O1,3.0281,-2.6540285472619045,2.1348981284626527,2.615830962606502,0.0980879765459674,2,111,LiInSiO4_Va_O1111,-2.0,-1.978054633768254,-1.978054633768254,0.989027316884127,-1.5993795332042406,9.953751334936525
3475,LiInSiO4,LiInSiO4_Va_O2,3.0281,-2.6540285472619045,1.9533932384269577,2.246415449729202,5.649649280000071,0,95,LiInSiO4_Va_O295,-2.0,-1.916511828181348,-1.916511828181348,0.958255914090674,-1.5993795332042406,9.296608149834421
3478,LiInSiO4,LiInSiO4_Va_O2,3.0281,-2.6540285472619045,1.9533932384269577,2.246415449729202,4.076972809958,1,95,LiInSiO4_Va_O295,-2.0,-1.916511828181348,-1.916511828181348,0.958255914090674,-1.5993795332042406,9.296608149834421
3481,LiInSiO4,LiInSiO4_Va_O2,3.0281,-2.6540285472619045,1.9533932384269577,2.246415449729202,2.6597637921988375,2,95,LiInSiO4_Va_O295,-2.0,-1.916511828181348,-1.916511828181348,0.958255914090674,-1.5993795332042406,9.296608149834421
3484,LiInSiO4,LiInSiO4_Va_O3,3.0281,-2.6540285472619045,1.9401956693506897,2.154711932666509,5.485765700000011,0,107,LiInSiO4_Va_O3107,-2.0,-1.955506742035523,-1.955506742035523,0.9777533710177616,-1.5993795332042406,9.485764526856537
3487,LiInSiO4,LiInSiO4_Va_O3,3.0281,-2.6540285472619045,1.9401956693506897,2.154711932666509,3.974789491554675,1,107,LiInSiO4_Va_O3107,-2.0,-1.955506742035523,-1.955506742035523,0.9777533710177616,-1.5993795332042406,9.485764526856537
3490,LiInSiO4,LiInSiO4_Va_O3,3.0281,-2.6540285472619045,1.9401956693506897,2.154711932666509,2.3479846859616145,2,107,LiInSiO4_Va_O3107,-2.0,-1.955506742035523,-1.955506742035523,0.9777533710177616,-1.5993795332042406,9.485764526856537
3493,LiSb3O8,LiSb3O8_Va_O1,1.1262,-1.960145810277778,2.5763752285228496,2.7469254629996245,3.548756499999977,0,47,LiSb3O8_Va_O147,-2.0,-2.25752632856245,-2.25752632856245,1.128763164281225,-0.5208045461292565,7.145936060834188
3496,LiSb3O8,LiSb3O8_Va_O1,1.1262,-1.960145810277778,2.5763752285228496,2.7469254629996245,1.849254780928932,1,47,LiSb3O8_Va_O147,-2.0,-2.25752632856245,-2.25752632856245,1.128763164281225,-0.5208045461292565,7.145936060834188
3499,LiSb3O8,LiSb3O8_Va_O1,1.1262,-1.960145810277778,2.5763752285228496,2.7469254629996245,0.0197348816512525,2,47,LiSb3O8_Va_O147,-2.0,-2.25752632856245,-2.25752632856245,1.128763164281225,-0.5208045461292565,7.145936060834188
3502,LiSb3O8,LiSb3O8_Va_O2,1.1262,-1.960145810277778,2.7927754650524235,3.559907060411964,4.805076799999947,0,63,LiSb3O8_Va_O263,-2.0,-2.3211214814769336,-2.3211214814769336,1.1605607407384668,-0.5208045461292565,8.397237702828338
3504,LiSb3O8,LiSb3O8_Va_O2,1.1262,-1.960145810277778,2.7927754650524235,3.559907060411964,-0.8653054829613551,2,63,LiSb3O8_Va_O263,-2.0,-2.3211214814769336,-2.3211214814769336,1.1605607407384668,-0.5208045461292565,8.397237702828338
3506,LiSb3O8,LiSb3O8_Va_O3,1.1262,-1.960145810277778,2.5571000482100716,2.735852057888418,3.753090139999935,0,79,LiSb3O8_Va_O379,-2.0,-2.3391260967993364,-2.3391260967993364,1.1695630483996682,-0.5208045461292565,7.404230601642928
3509,LiSb3O8,LiSb3O8_Va_O3,1.1262,-1.960145810277778,2.5571000482100716,2.735852057888418,2.0184643231303534,1,79,LiSb3O8_Va_O379,-2.0,-2.3391260967993364,-2.3391260967993364,1.1695630483996682,-0.5208045461292565,7.404230601642928
3512,LiSb3O8,LiSb3O8_Va_O3,1.1262,-1.960145810277778,2.5571000482100716,2.735852057888418,0.100802340047728,2,79,LiSb3O8_Va_O379,-2.0,-2.3391260967993364,-2.3391260967993364,1.1695630483996682,-0.5208045461292565,7.404230601642928
3515,LiSb3O8,LiSb3O8_Va_O4,1.1262,-1.960145810277778,2.5187492582146556,2.795003904936185,3.961730699999984,0,95,LiSb3O8_Va_O495,-2.0,-2.4372010367734345,-2.437201036773434,1.2186005183867172,-0.5208045461292565,7.714675375357411
3518,LiSb3O8,LiSb3O8_Va_O4,1.1262,-1.960145810277778,2.5187492582146556,2.795003904936185,2.220868413031444,1,95,LiSb3O8_Va_O495,-2.0,-2.4372010367734345,-2.437201036773434,1.2186005183867172,-0.5208045461292565,7.714675375357411
3521,LiSb3O8,LiSb3O8_Va_O4,1.1262,-1.960145810277778,2.5187492582146556,2.795003904936185,0.3079623590763627,2,95,LiSb3O8_Va_O495,-2.0,-2.4372010367734345,-2.437201036773434,1.2186005183867172,-0.5208045461292565,7.714675375357411
3524,LiSbO3,LiSbO3_Va_O1,2.3049999999999997,-2.118194097166666,2.185232051394197,2.4652643178020996,4.270184690000301,0,359,LiSbO3_Va_O1359,-2.0,-2.217801738869177,-2.217801738869177,1.1089008694345883,-0.5208045461292565,8.691416563223099
3527,LiSbO3,LiSbO3_Va_O1,2.3049999999999997,-2.118194097166666,2.185232051394197,2.4652643178020996,2.2580275770608704,1,359,LiSbO3_Va_O1359,-2.0,-2.217801738869177,-2.217801738869177,1.1089008694345883,-0.5208045461292565,8.691416563223099
3530,LiSbO3,LiSbO3_Va_O1,2.3049999999999997,-2.118194097166666,2.185232051394197,2.4652643178020996,0.2658743965471202,2,359,LiSbO3_Va_O1359,-2.0,-2.217801738869177,-2.217801738869177,1.1089008694345883,-0.5208045461292565,8.691416563223099
3533,LiSbO3,LiSbO3_Va_O2,2.3049999999999997,-2.118194097166666,2.239950188964073,2.6229005923662303,4.159277680000182,0,287,LiSbO3_Va_O2287,-2.0,-2.2156734004654677,-2.2156734004654677,1.1078367002327338,-0.5208045461292565,8.683075747482025
3536,LiSbO3,LiSbO3_Va_O2,2.3049999999999997,-2.118194097166666,2.239950188964073,2.6229005923662303,2.37227196752787,1,287,LiSbO3_Va_O2287,-2.0,-2.2156734004654677,-2.2156734004654677,1.1078367002327338,-0.5208045461292565,8.683075747482025
3539,LiSbO3,LiSbO3_Va_O2,2.3049999999999997,-2.118194097166666,2.239950188964073,2.6229005923662303,0.158361908165729,2,287,LiSbO3_Va_O2287,-2.0,-2.2156734004654677,-2.2156734004654677,1.1078367002327338,-0.5208045461292565,8.683075747482025
3542,Mg(GaO2)2,Mg(GaO2)2_Va_O1,2.6435999999999997,-2.5373796199999994,2.057437557842043,2.164471286507033,5.6557862899999325,0,111,Mg(GaO2)2_Va_O1111,-2.0,-1.9284240811946856,-1.9284240811946856,0.9642120405973428,-1.8812876656363955,8.089668367150836
3545,Mg(GaO2)2,Mg(GaO2)2_Va_O1,2.6435999999999997,-2.5373796199999994,2.057437557842043,2.164471286507033,3.6380664887006926,1,111,Mg(GaO2)2_Va_O1111,-2.0,-1.9284240811946856,-1.9284240811946856,0.9642120405973428,-1.8812876656363955,8.089668367150836
3548,Mg(GaO2)2,Mg(GaO2)2_Va_O1,2.6435999999999997,-2.5373796199999994,2.057437557842043,2.164471286507033,1.568397404266948,2,111,Mg(GaO2)2_Va_O1111,-2.0,-1.9284240811946856,-1.9284240811946856,0.9642120405973428,-1.8812876656363955,8.089668367150836
3551,Mg(GaO2)2,Mg(GaO2)2_Va_O2,2.6435999999999997,-2.5373796199999994,2.164791428412206,2.4422308896483296,5.611477139999929,0,95,Mg(GaO2)2_Va_O295,-2.0,-1.7494205942579777,-1.7494205942579777,0.8747102971289887,-1.8812876656363955,7.991798117970925
3554,Mg(GaO2)2,Mg(GaO2)2_Va_O2,2.6435999999999997,-2.5373796199999994,2.164791428412206,2.4422308896483296,3.1698068775387283,1,95,Mg(GaO2)2_Va_O295,-2.0,-1.7494205942579777,-1.7494205942579777,0.8747102971289887,-1.8812876656363955,7.991798117970925
3557,Mg(GaO2)2,Mg(GaO2)2_Va_O2,2.6435999999999997,-2.5373796199999994,2.164791428412206,2.4422308896483296,0.5316895875623331,2,95,Mg(GaO2)2_Va_O295,-2.0,-1.7494205942579777,-1.7494205942579777,0.8747102971289887,-1.8812876656363955,7.991798117970925
3560,Mg(SbO2)2,Mg(SbO2)2_Va_O1,2.3566000000000003,-2.1705149424999997,2.247257477502938,2.5266811950259194,4.938437779999967,0,79,Mg(SbO2)2_Va_O179,-2.0,-1.8507179548931711,-1.9238158477436835,0.9253589774465856,-1.2369755737418262,6.386849654224071
3563,Mg(SbO2)2,Mg(SbO2)2_Va_O1,2.3566000000000003,-2.1705149424999997,2.247257477502938,2.5266811950259194,2.860763779915909,1,79,Mg(SbO2)2_Va_O179,-2.0,-1.8507179548931711,-1.9238158477436835,0.9253589774465856,-1.2369755737418262,6.386849654224071
3566,Mg(SbO2)2,Mg(SbO2)2_Va_O1,2.3566000000000003,-2.1705149424999997,2.247257477502938,2.5266811950259194,0.3529713400486751,2,79,Mg(SbO2)2_Va_O179,-2.0,-1.8507179548931711,-1.9238158477436835,0.9253589774465856,-1.2369755737418262,6.386849654224071
3569,Mg(SbO2)2,Mg(SbO2)2_Va_O2,2.3566000000000003,-2.1705149424999997,2.3913436234518324,3.5438403880333182,4.459129279999965,0,111,Mg(SbO2)2_Va_O2111,-2.0,-2.223539363543817,-2.223539363543817,1.1117696817719085,-1.2369755737418262,9.59621248469707
3571,Mg(SbO2)2,Mg(SbO2)2_Va_O2,2.3566000000000003,-2.1705149424999997,2.3913436234518324,3.5438403880333182,1.9912609257496865,1,111,Mg(SbO2)2_Va_O2111,-2.0,-2.223539363543817,-2.223539363543817,1.1117696817719085,-1.2369755737418262,9.59621248469707
3573,Mg(SbO3)2,Mg(SbO3)2_Va_O1,1.2204999999999997,-2.227293432222222,2.623422811678609,2.951558788863369,4.452067259999987,0,71,Mg(SbO3)2_Va_O171,-2.0,-2.3562328758727533,-2.3562328758727533,1.1781164379363769,-0.5208045461292565,7.714138784271642
3576,Mg(SbO3)2,Mg(SbO3)2_Va_O1,1.2204999999999997,-2.227293432222222,2.623422811678609,2.951558788863369,2.4889338325132977,1,71,Mg(SbO3)2_Va_O171,-2.0,-2.3562328758727533,-2.3562328758727533,1.1781164379363769,-0.5208045461292565,7.714138784271642
3579,Mg(SbO3)2,Mg(SbO3)2_Va_O1,1.2204999999999997,-2.227293432222222,2.623422811678609,2.951558788863369,0.5134815583765788,2,71,Mg(SbO3)2_Va_O171,-2.0,-2.3562328758727533,-2.3562328758727533,1.1781164379363769,-0.5208045461292565,7.714138784271642
3582,Mg(SbO3)2,Mg(SbO3)2_Va_O2,1.2204999999999997,-2.227293432222222,2.6181543766427833,2.9552288083076332,4.4524430099999766,0,63,Mg(SbO3)2_Va_O263,-2.0,-2.312973314294329,-2.312973314294329,1.1564866571471646,-0.5208045461292565,7.572510057680215
3585,Mg(SbO3)2,Mg(SbO3)2_Va_O2,1.2204999999999997,-2.227293432222222,2.6181543766427833,2.9552288083076332,2.3917528865939337,1,63,Mg(SbO3)2_Va_O263,-2.0,-2.312973314294329,-2.312973314294329,1.1564866571471646,-0.5208045461292565,7.572510057680215
3588,Mg(SbO3)2,Mg(SbO3)2_Va_O2,1.2204999999999997,-2.227293432222222,2.6181543766427833,2.9552288083076332,0.4549566474735829,2,63,Mg(SbO3)2_Va_O263,-2.0,-2.312973314294329,-2.312973314294329,1.1564866571471646,-0.5208045461292565,7.572510057680215
3591,Mg2GeO4,Mg2GeO4_Va_O1,3.2892,-2.729311635,2.054104618635752,1.9219571448136403,4.6922941199999375,0,79,Mg2GeO4_Va_O179,-2.0,-1.7644218877869982,-1.7644218877869982,0.8822109438934991,-1.502819088333178,7.885105587597073
3594,Mg2GeO4,Mg2GeO4_Va_O1,3.2892,-2.729311635,2.054104618635752,1.9219571448136403,3.2302376169379476,1,79,Mg2GeO4_Va_O179,-2.0,-1.7644218877869982,-1.7644218877869982,0.8822109438934991,-1.502819088333178,7.885105587597073
3597,Mg2GeO4,Mg2GeO4_Va_O1,3.2892,-2.729311635,2.054104618635752,1.9219571448136403,1.2606893658574516,2,79,Mg2GeO4_Va_O179,-2.0,-1.7644218877869982,-1.7644218877869982,0.8822109438934991,-1.502819088333178,7.885105587597073
3600,Mg2GeO4,Mg2GeO4_Va_O2,3.2892,-2.729311635,1.988359071101306,2.036416461331928,5.010346599999943,0,95,Mg2GeO4_Va_O295,-2.0,-1.8714356615526464,-1.8714356615526468,0.9357178307763232,-1.502819088333178,8.36334433044542
3603,Mg2GeO4,Mg2GeO4_Va_O2,3.2892,-2.729311635,1.988359071101306,2.036416461331928,3.4509369529496805,1,95,Mg2GeO4_Va_O295,-2.0,-1.8714356615526464,-1.8714356615526468,0.9357178307763232,-1.502819088333178,8.36334433044542
3606,Mg2GeO4,Mg2GeO4_Va_O2,3.2892,-2.729311635,1.988359071101306,2.036416461331928,1.897649026264609,2,95,Mg2GeO4_Va_O295,-2.0,-1.8714356615526464,-1.8714356615526468,0.9357178307763232,-1.502819088333178,8.36334433044542
3609,Mg2GeO4,Mg2GeO4_Va_O3,3.2892,-2.729311635,2.000085437055408,2.560866760737587,4.642545649999997,0,111,Mg2GeO4_Va_O3111,-2.0,-2.070026449926317,-2.070026449926317,1.0350132249631585,-1.502819088333178,9.250835777864811