,formula,full_name,band_gap,formation_energy,nn_ave_eleneg,o2p_center_from_vbm,vacancy_formation_energy,charge,vacancy_index,merge_on,valence,bv_sum_Crystal,bv_sum_nn,BVS_ratio,vr_max,Eb_sum
2829,KBiO2,KBiO2_Va_O1,1.6872000000000005,-1.7274063657499994,1.6909699068975024,2.182037568463405,2.265751824220533,1,191,KBiO2_Va_O1191,-2.0,-1.8906716021338847,-1.8906716021338847,0.9453358010669424,-0.9858147743813158,6.025056990092086
2832,KBiO2,KBiO2_Va_O1,1.6872000000000005,-1.7274063657499994,1.6909699068975024,2.182037568463405,0.5347070813494796,2,191,KBiO2_Va_O1191,-2.0,-1.8906716021338847,-1.8906716021338847,0.9453358010669424,-0.9858147743813158,6.025056990092086
2835,KInO2,KInO2_Va_O1,2.1456,-1.91814239325,1.635850705304314,1.3579253909924716,4.494489600000074,0,431,KInO2_Va_O1431,-2.0,-1.493289096065419,-1.493289096065419,0.7466445480327095,-1.5993795332042406,6.492957488174088
2838,KInO2,KInO2_Va_O1,2.1456,-1.91814239325,1.635850705304314,1.3579253909924716,2.766709773947759,1,431,KInO2_Va_O1431,-2.0,-1.493289096065419,-1.493289096065419,0.7466445480327095,-1.5993795332042406,6.492957488174088
2841,KInO2,KInO2_Va_O1,2.1456,-1.91814239325,1.635850705304314,1.3579253909924716,1.4623326561590266,2,431,KInO2_Va_O1431,-2.0,-1.493289096065419,-1.493289096065419,0.7466445480327095,-1.5993795332042406,6.492957488174088
2844,KLi2BO3,KLi2BO3_Va_O1,4.11,-2.4615572841190474,1.2855047816897072,2.276321570608822,6.899784560000066,0,223,KLi2BO3_Va_O1223,-2.0,-1.4995086627644565,-1.6547617655587743,0.7497543313822281,-1.8820736227458112,6.335935491548934
2846,KLi2BO3,KLi2BO3_Va_O1,4.11,-2.4615572841190474,1.2855047816897072,2.276321570608822,4.719622517642595,1,223,KLi2BO3_Va_O1223,-2.0,-1.4995086627644565,-1.6547617655587743,0.7497543313822281,-1.8820736227458112,6.335935491548934
2848,KLi2BO3,KLi2BO3_Va_O2,4.11,-2.4615572841190474,1.263958157242166,2.5014175908824923,7.141103179999968,0,215,KLi2BO3_Va_O2215,-2.0,-1.8953795605186816,-1.8953795605186812,0.9476897802593408,-1.8820736227458112,11.840359457782943
2851,KLi2BO3,KLi2BO3_Va_O2,4.11,-2.4615572841190474,1.263958157242166,2.5014175908824923,4.635524387772875,1,215,KLi2BO3_Va_O2215,-2.0,-1.8953795605186816,-1.8953795605186812,0.9476897802593408,-1.8820736227458112,11.840359457782943
2854,KLi2BO3,KLi2BO3_Va_O2,4.11,-2.4615572841190474,1.263958157242166,2.5014175908824923,2.389158381877936,2,215,KLi2BO3_Va_O2215,-2.0,-1.8953795605186816,-1.8953795605186812,0.9476897802593408,-1.8820736227458112,11.840359457782943
2857,KLi3PbO4,KLi3PbO4_Va_O1,1.5082999999999998,-1.8470879364444448,1.553457002119542,1.7256615262604709,3.167525650000025,0,143,KLi3PbO4_Va_O1143,-2.0,-1.9572520518817171,-1.9572520518817171,0.9786260259408586,-0.2712847561180753,8.250409994074662
2860,KLi3PbO4,KLi3PbO4_Va_O1,1.5082999999999998,-1.8470879364444448,1.553457002119542,1.7256615262604709,1.8838590181351231,1,143,KLi3PbO4_Va_O1143,-2.0,-1.9572520518817171,-1.9572520518817171,0.9786260259408586,-0.2712847561180753,8.250409994074662
2863,KLi3PbO4,KLi3PbO4_Va_O1,1.5082999999999998,-1.8470879364444448,1.553457002119542,1.7256615262604709,0.8078178780723371,2,143,KLi3PbO4_Va_O1143,-2.0,-1.9572520518817171,-1.9572520518817171,0.9786260259408586,-0.2712847561180753,8.250409994074662
2866,KLi3PbO4,KLi3PbO4_Va_O2,1.5082999999999998,-1.8470879364444448,1.281159833024811,1.512911135104135,2.81457178000006,0,103,KLi3PbO4_Va_O2103,-2.0,-1.8758585530197605,-1.875858553019761,0.9379292765098802,-0.2712847561180753,7.745926261937055
2869,KLi3PbO4,KLi3PbO4_Va_O2,1.5082999999999998,-1.8470879364444448,1.281159833024811,1.512911135104135,2.111974271506896,1,103,KLi3PbO4_Va_O2103,-2.0,-1.8758585530197605,-1.875858553019761,0.9379292765098802,-0.2712847561180753,7.745926261937055
2872,KLi3PbO4,KLi3PbO4_Va_O2,1.5082999999999998,-1.8470879364444448,1.281159833024811,1.512911135104135,1.956253556905459,2,103,KLi3PbO4_Va_O2103,-2.0,-1.8758585530197605,-1.875858553019761,0.9379292765098802,-0.2712847561180753,7.745926261937055
2875,KLi3PbO4,KLi3PbO4_Va_O3,1.5082999999999998,-1.8470879364444448,1.2242356931611795,1.209322431491664,2.6541801700000267,0,119,KLi3PbO4_Va_O3119,-2.0,-1.8944717515147849,-1.8944717515147849,0.9472358757573924,-0.2712847561180753,7.822785182248058
2878,KLi3PbO4,KLi3PbO4_Va_O3,1.5082999999999998,-1.8470879364444448,1.2242356931611795,1.209322431491664,1.920421022511652,1,119,KLi3PbO4_Va_O3119,-2.0,-1.8944717515147849,-1.8944717515147849,0.9472358757573924,-0.2712847561180753,7.822785182248058
2881,KLi3PbO4,KLi3PbO4_Va_O3,1.5082999999999998,-1.8470879364444448,1.2242356931611795,1.209322431491664,1.5931525107184004,2,119,KLi3PbO4_Va_O3119,-2.0,-1.8944717515147849,-1.8944717515147849,0.9472358757573924,-0.2712847561180753,7.822785182248058
2884,KLi3PbO4,KLi3PbO4_Va_O4,1.5082999999999998,-1.8470879364444448,1.1896122047059587,1.1017051414130348,3.402882620000023,0,135,KLi3PbO4_Va_O4135,-2.0,-1.4167408727368231,-1.4167408727368231,0.7083704363684116,-0.2712847561180753,5.4598102773760075
2887,KLi3PbO4,KLi3PbO4_Va_O4,1.5082999999999998,-1.8470879364444448,1.1896122047059587,1.1017051414130348,2.47421403917496,1,135,KLi3PbO4_Va_O4135,-2.0,-1.4167408727368231,-1.4167408727368231,0.7083704363684116,-0.2712847561180753,5.4598102773760075
2890,KLi3PbO4,KLi3PbO4_Va_O4,1.5082999999999998,-1.8470879364444448,1.1896122047059587,1.1017051414130348,2.0066241184357714,2,135,KLi3PbO4_Va_O4135,-2.0,-1.4167408727368231,-1.4167408727368231,0.7083704363684116,-0.2712847561180753,5.4598102773760075
2902,KMgBO3,KMgBO3_Va_O1,4.4397,-2.7871217324444446,1.640229748755042,2.3109804950418784,6.820125110000058,0,191,KMgBO3_Va_O1191,-2.0,-1.851954200860088,-1.851954200860088,0.925977100430044,-1.8820736227458112,10.13291193162991
2905,KMgBO3,KMgBO3_Va_O1,4.4397,-2.7871217324444446,1.640229748755042,2.3109804950418784,4.511567241986478,1,191,KMgBO3_Va_O1191,-2.0,-1.851954200860088,-1.851954200860088,0.925977100430044,-1.8820736227458112,10.13291193162991
2908,KMgBO3,KMgBO3_Va_O1,4.4397,-2.7871217324444446,1.640229748755042,2.3109804950418784,2.831152056912553,2,191,KMgBO3_Va_O1191,-2.0,-1.851954200860088,-1.851954200860088,0.925977100430044,-1.8820736227458112,10.13291193162991
2911,KNa2GaO3,KNa2GaO3_Va_O1,2.6474,-1.935132645871921,1.1397465836804015,1.211066657191185,4.989876499999932,0,111,KNa2GaO3_Va_O1111,-2.0,-1.5926100991726455,-1.535846677508787,0.7963050495863229,-1.8812876656363955,7.240763933265949
2914,KNa2GaO3,KNa2GaO3_Va_O1,2.6474,-1.935132645871921,1.1397465836804015,1.211066657191185,3.8299696617016368,1,111,KNa2GaO3_Va_O1111,-2.0,-1.5926100991726455,-1.535846677508787,0.7963050495863229,-1.8812876656363955,7.240763933265949
2917,KNa2GaO3,KNa2GaO3_Va_O1,2.6474,-1.935132645871921,1.1397465836804015,1.211066657191185,2.964285508028129,2,111,KNa2GaO3_Va_O1111,-2.0,-1.5926100991726455,-1.535846677508787,0.7963050495863229,-1.8812876656363955,7.240763933265949
2920,KNa2GaO3,KNa2GaO3_Va_O2,2.6474,-1.935132645871921,1.360742949064231,2.119627629136315,5.259106249999954,0,103,KNa2GaO3_Va_O2103,-2.0,-1.9447484659046548,-1.9447484659046548,0.9723742329523274,-1.8812876656363955,9.0252596164989
2923,KNa2GaO3,KNa2GaO3_Va_O2,2.6474,-1.935132645871921,1.360742949064231,2.119627629136315,3.496530082368097,1,103,KNa2GaO3_Va_O2103,-2.0,-1.9447484659046548,-1.9447484659046548,0.9723742329523274,-1.8812876656363955,9.0252596164989
2926,KNa2GaO3,KNa2GaO3_Va_O2,2.6474,-1.935132645871921,1.360742949064231,2.119627629136315,1.835966215876172,2,103,KNa2GaO3_Va_O2103,-2.0,-1.9447484659046548,-1.9447484659046548,0.9723742329523274,-1.8812876656363955,9.0252596164989
2929,KNa2GaO3,KNa2GaO3_Va_O3,2.6474,-1.935132645871921,1.1333040014952391,1.2326162022518727,5.006974459999933,0,91,KNa2GaO3_Va_O391,-2.0,-1.4540487028079558,-1.4540487028079558,0.7270243514039779,-1.8812876656363955,5.8626622733396125
2932,KNa2GaO3,KNa2GaO3_Va_O3,2.6474,-1.935132645871921,1.1333040014952391,1.2326162022518727,3.8217754626960714,1,91,KNa2GaO3_Va_O391,-2.0,-1.4540487028079558,-1.4540487028079558,0.7270243514039779,-1.8812876656363955,5.8626622733396125
2935,KNa2GaO3,KNa2GaO3_Va_O3,2.6474,-1.935132645871921,1.1333040014952391,1.2326162022518727,2.92182066305184,2,91,KNa2GaO3_Va_O391,-2.0,-1.4540487028079558,-1.4540487028079558,0.7270243514039779,-1.8812876656363955,5.8626622733396125
2938,KNaGeO3,KNaGeO3_Va_O1,2.9851,-2.117326609925288,1.8437766363678552,2.9868647661268186,4.37897048000003,0,113,KNaGeO3_Va_O1113,-2.0,-1.9307212913684624,-1.8980245831641644,0.9653606456842312,-1.502819088333178,10.358068629786565
2941,KNaGeO3,KNaGeO3_Va_O1,2.9851,-2.117326609925288,1.8437766363678552,2.9868647661268186,2.656698835307724,1,113,KNaGeO3_Va_O1113,-2.0,-1.9307212913684624,-1.8980245831641644,0.9653606456842312,-1.502819088333178,10.358068629786565
2944,KNaGeO3,KNaGeO3_Va_O1,2.9851,-2.117326609925288,1.8437766363678552,2.9868647661268186,0.5404177226887161,2,113,KNaGeO3_Va_O1113,-2.0,-1.9307212913684624,-1.8980245831641644,0.9653606456842312,-1.502819088333178,10.358068629786565
2947,KNaGeO3,KNaGeO3_Va_O2,2.9851,-2.117326609925288,1.2895395253474982,1.5852786746896497,4.223059799999996,0,137,KNaGeO3_Va_O2137,-2.0,-1.7572821957755034,-1.7572821957755034,0.8786410978877517,-1.502819088333178,8.124331081458374
2950,KNaGeO3,KNaGeO3_Va_O2,2.9851,-2.117326609925288,1.2895395253474982,1.5852786746896497,3.2792316810022353,1,137,KNaGeO3_Va_O2137,-2.0,-1.7572821957755034,-1.7572821957755034,0.8786410978877517,-1.502819088333178,8.124331081458374
2953,KNaGeO3,KNaGeO3_Va_O2,2.9851,-2.117326609925288,1.2895395253474982,1.5852786746896497,1.8345381315928653,2,137,KNaGeO3_Va_O2137,-2.0,-1.7572821957755034,-1.7572821957755034,0.8786410978877517,-1.502819088333178,8.124331081458374
2956,KNaGeO3,KNaGeO3_Va_O3,2.9851,-2.117326609925288,1.4978200683451948,1.417702878339132,3.8378607199999895,0,143,KNaGeO3_Va_O3143,-2.0,-1.4211004374174203,-1.6558822601829466,0.7105502187087103,-1.502819088333178,3.4862046022622826
2959,KNaGeO3,KNaGeO3_Va_O3,2.9851,-2.117326609925288,1.4978200683451948,1.417702878339132,3.0602682000956873,1,143,KNaGeO3_Va_O3143,-2.0,-1.4211004374174203,-1.6558822601829466,0.7105502187087103,-1.502819088333178,3.4862046022622826
2962,KNaGeO3,KNaGeO3_Va_O3,2.9851,-2.117326609925288,1.4978200683451948,1.417702878339132,2.105067894565124,2,143,KNaGeO3_Va_O3143,-2.0,-1.4211004374174203,-1.6558822601829466,0.7105502187087103,-1.502819088333178,3.4862046022622826
2965,KSbO2,KSbO2_Va_O1,1.8589,-1.8866991319999995,1.802212692901336,2.920970269980452,4.4793254599998225,0,191,KSbO2_Va_O1191,-2.0,-1.904503093950188,-1.8446157795036773,0.952251546975094,-1.2369755737418262,9.517180953625857
2968,KSbO2,KSbO2_Va_O1,1.8589,-1.8866991319999995,1.802212692901336,2.920970269980452,2.301834696591606,1,191,KSbO2_Va_O1191,-2.0,-1.904503093950188,-1.8446157795036773,0.952251546975094,-1.2369755737418262,9.517180953625857
2971,KSbO2,KSbO2_Va_O1,1.8589,-1.8866991319999995,1.802212692901336,2.920970269980452,0.4420414198036104,2,191,KSbO2_Va_O1191,-2.0,-1.904503093950188,-1.8446157795036773,0.952251546975094,-1.2369755737418262,9.517180953625857
2974,KSbO3,KSbO3_Va_O1,2.7925,-2.0533213286,2.2357932253282184,1.8010702005981054,4.3210081300000045,0,269,KSbO3_Va_O1269,-2.0,-2.175570987775092,-2.175570987775092,1.087785493887546,-0.5208045461292565,7.48585978397535
2977,KSbO3,KSbO3_Va_O1,2.7925,-2.0533213286,2.2357932253282184,1.8010702005981054,2.3911066557473317,1,269,KSbO3_Va_O1269,-2.0,-2.175570987775092,-2.175570987775092,1.087785493887546,-0.5208045461292565,7.48585978397535
2980,KSbO3,KSbO3_Va_O1,2.7925,-2.0533213286,2.2357932253282184,1.8010702005981054,0.5162380376148104,2,269,KSbO3_Va_O1269,-2.0,-2.175570987775092,-2.175570987775092,1.087785493887546,-0.5208045461292565,7.48585978397535
2983,KTlO2,KTlO2_Va_O1,0.8886000000000001,-1.3916903565833332,1.4993800130188202,1.6564606306879983,-0.346045799690813,2,299,KTlO2_Va_O1299,-2.0,-2.295604156820869,-2.2956041568208696,1.1478020784104346,-0.5778080287901701,8.021605620171062
2984,KTlO,KTlO_Va_O1,1.0755,-1.2013808837777784,1.3166777995745214,2.1122458826960884,3.7728499699999904,0,95,KTlO_Va_O195,-2.0,-1.9864883740673436,-1.9864883740673431,0.9932441870336718,-0.8674893634033586,7.086402836836288
2987,KTlO,KTlO_Va_O1,1.0755,-1.2013808837777784,1.3166777995745214,2.1122458826960884,2.097587966711301,1,95,KTlO_Va_O195,-2.0,-1.9864883740673436,-1.9864883740673431,0.9932441870336718,-0.8674893634033586,7.086402836836288
2990,KTlO,KTlO_Va_O1,1.0755,-1.2013808837777784,1.3166777995745214,2.1122458826960884,1.1366669548090025,2,95,KTlO_Va_O195,-2.0,-1.9864883740673436,-1.9864883740673431,0.9932441870336718,-0.8674893634033586,7.086402836836288
2993,Li2BeSiO4,Li2BeSiO4_Va_O1,5.9582,-2.9697805114583327,1.5815138258799837,2.287370800501437,6.999505120000217,0,215,Li2BeSiO4_Va_O1215,-2.0,-2.0686327568663763,-2.0686327568663763,1.034316378433188,-2.356834901289411,11.26463516324717
2996,Li2BeSiO4,Li2BeSiO4_Va_O1,5.9582,-2.9697805114583327,1.5815138258799837,2.287370800501437,4.772267248231796,1,215,Li2BeSiO4_Va_O1215,-2.0,-2.0686327568663763,-2.0686327568663763,1.034316378433188,-2.356834901289411,11.26463516324717
2999,Li2BeSiO4,Li2BeSiO4_Va_O1,5.9582,-2.9697805114583327,1.5815138258799837,2.287370800501437,2.078336457017685,2,215,Li2BeSiO4_Va_O1215,-2.0,-2.0686327568663763,-2.0686327568663763,1.034316378433188,-2.356834901289411,11.26463516324717
3002,Li2BeSiO4,Li2BeSiO4_Va_O2,5.9582,-2.9697805114583327,1.5767993336371335,2.3139119668091293,6.992015780000097,0,287,Li2BeSiO4_Va_O2287,-2.0,-2.1310514941683247,-2.131051494168325,1.0655257470841624,-2.356834901289411,11.604533243620864
3005,Li2BeSiO4,Li2BeSiO4_Va_O2,5.9582,-2.9697805114583327,1.5767993336371335,2.3139119668091293,4.75514875903825,1,287,Li2BeSiO4_Va_O2287,-2.0,-2.1310514941683247,-2.131051494168325,1.0655257470841624,-2.356834901289411,11.604533243620864
3008,Li2BeSiO4,Li2BeSiO4_Va_O2,5.9582,-2.9697805114583327,1.5767993336371335,2.3139119668091293,2.658482438533027,2,287,Li2BeSiO4_Va_O2287,-2.0,-2.1310514941683247,-2.131051494168325,1.0655257470841624,-2.356834901289411,11.604533243620864
3011,Li2BeSiO4,Li2BeSiO4_Va_O3,5.9582,-2.9697805114583327,1.5467056727564814,2.3039801600180567,7.046757830000056,0,233,Li2BeSiO4_Va_O3233,-2.0,-2.0061585582703603,-2.02405446970922,1.00307927913518,-2.356834901289411,10.924435071198726
3014,Li2BeSiO4,Li2BeSiO4_Va_O3,5.9582,-2.9697805114583327,1.5467056727564814,2.3039801600180567,4.684310813702974,1,233,Li2BeSiO4_Va_O3233,-2.0,-2.0061585582703603,-2.02405446970922,1.00307927913518,-2.356834901289411,10.924435071198726
3017,Li2BeSiO4,Li2BeSiO4_Va_O3,5.9582,-2.9697805114583327,1.5467056727564814,2.3039801600180567,2.8648529138900645,2,233,Li2BeSiO4_Va_O3233,-2.0,-2.0061585582703603,-2.02405446970922,1.00307927913518,-2.356834901289411,10.924435071198726
3020,Li2BeSiO4,Li2BeSiO4_Va_O4,5.9582,-2.9697805114583327,1.5400985073205262,2.309044243359462,7.076675580000151,0,269,Li2BeSiO4_Va_O4269,-2.0,-2.0249791754649147,-2.042997168142647,1.0124895877324571,-2.356834901289411,11.026921791250935
3023,Li2BeSiO4,Li2BeSiO4_Va_O4,5.9582,-2.9697805114583327,1.5400985073205262,2.309044243359462,4.7539659546468185,1,269,Li2BeSiO4_Va_O4269,-2.0,-2.0249791754649147,-2.042997168142647,1.0124895877324571,-2.356834901289411,11.026921791250935
3026,Li2BeSiO4,Li2BeSiO4_Va_O4,5.9582,-2.9697805114583327,1.5400985073205262,2.309044243359462,2.9164370737281025,2,269,Li2BeSiO4_Va_O4269,-2.0,-2.0249791754649147,-2.042997168142647,1.0124895877324571,-2.356834901289411,11.026921791250935
3029,Li2CaGeO4,Li2CaGeO4_Va_O1,4.031000000000001,-2.6042605814583326,1.4902274727239526,1.8246241203870817,4.934452970000061,0,255,Li2CaGeO4_Va_O1255,-2.0,-1.7880339322407814,-1.7880339322407814,0.8940169661203907,-1.502819088333178,9.345108567295917
3032,Li2CaGeO4,Li2CaGeO4_Va_O1,4.031000000000001,-2.6042605814583326,1.4902274727239526,1.8246241203870817,3.381155232281267,1,255,Li2CaGeO4_Va_O1255,-2.0,-1.7880339322407814,-1.7880339322407814,0.8940169661203907,-1.502819088333178,9.345108567295917
3035,Li2CaGeO4,Li2CaGeO4_Va_O1,4.031000000000001,-2.6042605814583326,1.4902274727239526,1.8246241203870817,1.5948667872004472,2,255,Li2CaGeO4_Va_O1255,-2.0,-1.7880339322407814,-1.7880339322407814,0.8940169661203907,-1.502819088333178,9.345108567295917
3038,Li2GeO3,Li2GeO3_Va_O1,3.4576,-2.322119386944445,1.7564349653506546,2.991069972713284,4.615012139999985,0,79,Li2GeO3_Va_O179,-2.0,-1.8587040168999285,-1.8587040168999285,0.929352008449964,-1.502819088333178,9.799865789838986
3041,Li2GeO3,Li2GeO3_Va_O1,3.4576,-2.322119386944445,1.7564349653506546,2.991069972713284,2.8993290834322334,1,79,Li2GeO3_Va_O179,-2.0,-1.8587040168999285,-1.8587040168999285,0.929352008449964,-1.502819088333178,9.799865789838986
3044,Li2GeO3,Li2GeO3_Va_O1,3.4576,-2.322119386944445,1.7564349653506546,2.991069972713284,0.5305495481900779,2,79,Li2GeO3_Va_O179,-2.0,-1.8587040168999285,-1.8587040168999285,0.929352008449964,-1.502819088333178,9.799865789838986
3047,Li2GeO3,Li2GeO3_Va_O2,3.4576,-2.322119386944445,1.3652047087203154,1.5468594223209264,4.147495839999928,0,95,Li2GeO3_Va_O295,-2.0,-1.839920555552939,-1.84896591914936,0.9199602777764696,-1.502819088333178,7.623359287037187
3050,Li2GeO3,Li2GeO3_Va_O2,3.4576,-2.322119386944445,1.3652047087203154,1.5468594223209264,3.248557471547689,1,95,Li2GeO3_Va_O295,-2.0,-1.839920555552939,-1.84896591914936,0.9199602777764696,-1.502819088333178,7.623359287037187
3053,Li2GeO3,Li2GeO3_Va_O2,3.4576,-2.322119386944445,1.3652047087203154,1.5468594223209264,2.0582127658119433,2,95,Li2GeO3_Va_O295,-2.0,-1.839920555552939,-1.84896591914936,0.9199602777764696,-1.502819088333178,7.623359287037187
3056,Li2MgGeO4,Li2MgGeO4_Va_O1,3.7342,-2.5282078089583333,1.5074619169487726,1.6489551223037804,5.1041084300003465,0,269,Li2MgGeO4_Va_O1269,-2.0,-1.8201450010256428,-1.820145001025643,0.9100725005128214,-1.502819088333178,7.738991754857584
3059,Li2MgGeO4,Li2MgGeO4_Va_O1,3.7342,-2.5282078089583333,1.5074619169487726,1.6489551223037804,3.5755568662446606,1,269,Li2MgGeO4_Va_O1269,-2.0,-1.8201450010256428,-1.820145001025643,0.9100725005128214,-1.502819088333178,7.738991754857584
3062,Li2MgGeO4,Li2MgGeO4_Va_O1,3.7342,-2.5282078089583333,1.5074619169487726,1.6489551223037804,2.550856753338458,2,269,Li2MgGeO4_Va_O1269,-2.0,-1.8201450010256428,-1.820145001025643,0.9100725005128214,-1.502819088333178,7.738991754857584
3065,Li2MgGeO4,Li2MgGeO4_Va_O2,3.7342,-2.5282078089583333,1.4572596274391074,1.6992928168756496,5.144730860000331,0,377,Li2MgGeO4_Va_O2377,-2.0,-1.8806251912793364,-1.880625191279336,0.9403125956396682,-1.502819088333178,7.9961447253307085
3068,Li2MgGeO4,Li2MgGeO4_Va_O2,3.7342,-2.5282078089583333,1.4572596274391074,1.6992928168756496,3.856691844990358,1,377,Li2MgGeO4_Va_O2377,-2.0,-1.8806251912793364,-1.880625191279336,0.9403125956396682,-1.502819088333178,7.9961447253307085
3071,Li2MgGeO4,Li2MgGeO4_Va_O2,3.7342,-2.5282078089583333,1.4572596274391074,1.6992928168756496,2.8699542862404823,2,377,Li2MgGeO4_Va_O2377,-2.0,-1.8806251912793364,-1.880625191279336,0.9403125956396682,-1.502819088333178,7.9961447253307085
3074,Li2MgGeO4,Li2MgGeO4_Va_O3,3.7342,-2.5282078089583333,1.5319867475206712,1.6171333775852283,5.076805540000246,0,431,Li2MgGeO4_Va_O3431,-2.0,-1.901929067098523,-1.9019290670985227,0.9509645335492616,-1.502819088333178,8.0867257060868
3077,Li2MgGeO4,Li2MgGeO4_Va_O3,3.7342,-2.5282078089583333,1.5319867475206712,1.6171333775852283,3.824508658059828,1,431,Li2MgGeO4_Va_O3431,-2.0,-1.901929067098523,-1.9019290670985227,0.9509645335492616,-1.502819088333178,8.0867257060868
3080,Li2MgGeO4,Li2MgGeO4_Va_O3,3.7342,-2.5282078089583333,1.5319867475206712,1.6171333775852283,2.041976113049459,2,431,Li2MgGeO4_Va_O3431,-2.0,-1.901929067098523,-1.9019290670985227,0.9509645335492616,-1.502819088333178,8.0867257060868
3083,Li2O,Li2O_Va_O1,4.8772,-2.061597913888889,0.98,1.168204519962669,7.427469659999995,0,95,Li2O_Va_O195,-2.0,-1.6307834702785071,-1.630783470278507,0.8153917351392537,-3.1005489752967774,9.831012445621905