,formula,full_name,band_gap,formation_energy,nn_ave_eleneg,o2p_center_from_vbm,vacancy_formation_energy,charge,vacancy_index,merge_on,valence,bv_sum_Crystal,bv_sum_nn,BVS_ratio,vr_max,Eb_sum
4112,Na3SbO4,Na3SbO4_Va_O2,2.3398999999999996,-2.005708985581896,1.6896411543269056,2.389389527496937,4.801790419999984,0,431,Na3SbO4_Va_O2431,-2.0,-2.1109701515271455,-2.1109701515271455,1.0554850757635728,-0.5208045461292565,9.90865227277554
4115,Na3SbO4,Na3SbO4_Va_O2,2.3398999999999996,-2.005708985581896,1.6896411543269056,2.389389527496937,2.704322900920076,1,431,Na3SbO4_Va_O2431,-2.0,-2.1109701515271455,-2.1109701515271455,1.0554850757635728,-0.5208045461292565,9.90865227277554
4118,Na3SbO4,Na3SbO4_Va_O2,2.3398999999999996,-2.005708985581896,1.6896411543269056,2.389389527496937,0.7142738803217787,2,431,Na3SbO4_Va_O2431,-2.0,-2.1109701515271455,-2.1109701515271455,1.0554850757635728,-0.5208045461292565,9.90865227277554
4121,Na3TlO2,Na3TlO2_Va_O1,1.8859,-1.3479438054980846,1.040080706544037,1.611030909279504,4.91480296000004,0,79,Na3TlO2_Va_O179,-2.0,-1.6860264420186,-1.6860264420186,0.8430132210093,-0.8674893634033586,5.946862524300109
4124,Na3TlO2,Na3TlO2_Va_O1,1.8859,-1.3479438054980846,1.040080706544037,1.611030909279504,3.5318415458428083,1,79,Na3TlO2_Va_O179,-2.0,-1.6860264420186,-1.6860264420186,0.8430132210093,-0.8674893634033586,5.946862524300109
4127,Na3TlO2,Na3TlO2_Va_O1,1.8859,-1.3479438054980846,1.040080706544037,1.611030909279504,2.883934838431472,2,79,Na3TlO2_Va_O179,-2.0,-1.6860264420186,-1.6860264420186,0.8430132210093,-0.8674893634033586,5.946862524300109
4130,Na3TlO2,Na3TlO2_Va_O2,1.8859,-1.3479438054980846,1.156222978173973,1.9992228719371068,4.638003369999987,0,95,Na3TlO2_Va_O295,-2.0,-2.067179897940963,-2.067179897940963,1.0335899489704814,-0.8674893634033586,7.506375058786051
4133,Na3TlO2,Na3TlO2_Va_O2,1.8859,-1.3479438054980846,1.156222978173973,1.9992228719371068,2.990052550501116,1,95,Na3TlO2_Va_O295,-2.0,-2.067179897940963,-2.067179897940963,1.0335899489704814,-0.8674893634033586,7.506375058786051
4136,Na3TlO2,Na3TlO2_Va_O2,1.8859,-1.3479438054980846,1.156222978173973,1.9992228719371068,1.9866255116451896,2,95,Na3TlO2_Va_O295,-2.0,-2.067179897940963,-2.067179897940963,1.0335899489704814,-0.8674893634033586,7.506375058786051
4139,Na4As2O7,Na4As2O7_Va_O1,3.3173,-2.0155756674005305,1.7540649876880414,2.0233143153842033,3.1223831600000356,0,63,Na4As2O7_Va_O163,-2.0,-2.099312232251735,-2.099312232251735,1.0496561161258675,-0.6589084382122885,6.579973581085135
4140,Na4As2O7,Na4As2O7_Va_O2,3.3173,-2.0155756674005305,1.6314853634769144,1.970287759152461,3.2559121500000945,0,79,Na4As2O7_Va_O279,-2.0,-2.2441306661742533,-2.2441306661742533,1.1220653330871266,-0.6589084382122885,7.033884845271981
4142,Na4As2O7,Na4As2O7_Va_O2,3.3173,-2.0155756674005305,1.6314853634769144,1.970287759152461,2.398127468707476,1,79,Na4As2O7_Va_O279,-2.0,-2.2441306661742533,-2.2441306661742533,1.1220653330871266,-0.6589084382122885,7.033884845271981
4144,Na4As2O7,Na4As2O7_Va_O3,3.3173,-2.0155756674005305,1.7084466627525752,1.8908815031685529,2.9202493600000796,0,95,Na4As2O7_Va_O395,-2.0,-2.1180461246444695,-2.1180461246444695,1.0590230623222348,-0.6589084382122885,6.638692105714922
4146,Na4As2O7,Na4As2O7_Va_O3,3.3173,-2.0155756674005305,1.7084466627525752,1.8908815031685529,1.9809984001650112,1,95,Na4As2O7_Va_O395,-2.0,-2.1180461246444695,-2.1180461246444695,1.0590230623222348,-0.6589084382122885,6.638692105714922
4148,Na4As2O7,Na4As2O7_Va_O4,3.3173,-2.0155756674005305,2.0912548118855763,3.4326418524122086,3.5251987300000653,0,103,Na4As2O7_Va_O4103,-2.0,-2.04460652862,-2.184419170154273,1.02230326431,-0.6589084382122885,5.818165958470036
4150,Na4As2O7,Na4As2O7_Va_O4,3.3173,-2.0155756674005305,2.0912548118855763,3.4326418524122086,1.5827987706941198,1,103,Na4As2O7_Va_O4103,-2.0,-2.04460652862,-2.184419170154273,1.02230326431,-0.6589084382122885,5.818165958470036
4152,Na4B2O5,Na4B2O5_Va_O1,3.931799999999999,-2.4025234576854757,1.845713900961803,3.866771063003552,6.625256120000026,0,111,Na4B2O5_Va_O1111,-2.0,-1.6236147191376906,-1.9462826867084275,0.8118073595688453,-2.158566424325179,8.826753630638859
4155,Na4B2O5,Na4B2O5_Va_O1,3.931799999999999,-2.4025234576854757,1.845713900961803,3.866771063003552,3.84389249960042,1,111,Na4B2O5_Va_O1111,-2.0,-1.6236147191376906,-1.9462826867084275,0.8118073595688453,-2.158566424325179,8.826753630638859
4158,Na4B2O5,Na4B2O5_Va_O1,3.931799999999999,-2.4025234576854757,1.845713900961803,3.866771063003552,0.610225549655238,2,111,Na4B2O5_Va_O1111,-2.0,-1.6236147191376906,-1.9462826867084275,0.8118073595688453,-2.158566424325179,8.826753630638859
4161,Na4B2O5,Na4B2O5_Va_O2,3.931799999999999,-2.4025234576854757,1.3517104707823588,2.316185256690084,7.033295329999996,0,175,Na4B2O5_Va_O2175,-2.0,-1.0456961843892207,-1.867732212511719,0.5228480921946104,-2.158566424325179,2.842454704095349
4164,Na4B2O5,Na4B2O5_Va_O2,3.931799999999999,-2.4025234576854757,1.3517104707823588,2.316185256690084,4.9550758702360245,1,175,Na4B2O5_Va_O2175,-2.0,-1.0456961843892207,-1.867732212511719,0.5228480921946104,-2.158566424325179,2.842454704095349
4167,Na4B2O5,Na4B2O5_Va_O2,3.931799999999999,-2.4025234576854757,1.3517104707823588,2.316185256690084,3.4519744922004953,2,175,Na4B2O5_Va_O2175,-2.0,-1.0456961843892207,-1.867732212511719,0.5228480921946104,-2.158566424325179,2.842454704095349
4170,Na4B2O5,Na4B2O5_Va_O3,3.931799999999999,-2.4025234576854757,1.3406295346177046,2.372462851852311,7.080014799999967,0,159,Na4B2O5_Va_O3159,-2.0,-1.0513211324237963,-1.9869298493484369,0.5256605662118983,-2.158566424325179,2.857744670951746
4173,Na4B2O5,Na4B2O5_Va_O3,3.931799999999999,-2.4025234576854757,1.3406295346177046,2.372462851852311,5.015227585063228,1,159,Na4B2O5_Va_O3159,-2.0,-1.0513211324237963,-1.9869298493484369,0.5256605662118983,-2.158566424325179,2.857744670951746
4176,Na4B2O5,Na4B2O5_Va_O3,3.931799999999999,-2.4025234576854757,1.3406295346177046,2.372462851852311,3.395529861172406,2,159,Na4B2O5_Va_O3159,-2.0,-1.0513211324237963,-1.9869298493484369,0.5256605662118983,-2.158566424325179,2.857744670951746
4179,Na4GeO4,Na4GeO4_Va_O1,2.8884999999999996,-2.0175675590229885,1.2264580719633678,1.4259876648008478,4.8971426500001005,0,305,Na4GeO4_Va_O1305,-2.0,-1.830165275827199,-1.830165275827199,0.9150826379135992,-1.502819088333178,8.666243705821032
4182,Na4GeO4,Na4GeO4_Va_O1,2.8884999999999996,-2.0175675590229885,1.2264580719633678,1.4259876648008478,3.6972138063455047,1,305,Na4GeO4_Va_O1305,-2.0,-1.830165275827199,-1.830165275827199,0.9150826379135992,-1.502819088333178,8.666243705821032
4185,Na4GeO4,Na4GeO4_Va_O1,2.8884999999999996,-2.0175675590229885,1.2264580719633678,1.4259876648008478,3.1293245676756203,2,305,Na4GeO4_Va_O1305,-2.0,-1.830165275827199,-1.830165275827199,0.9150826379135992,-1.502819088333178,8.666243705821032
4188,Na4GeO4,Na4GeO4_Va_O2,2.8884999999999996,-2.0175675590229885,1.2117565074226204,1.4357606009606547,5.011667060000159,0,233,Na4GeO4_Va_O2233,-2.0,-1.8866987640952504,-1.8866987640952504,0.9433493820476252,-1.502819088333178,8.933942472343457
4190,Na4GeO4,Na4GeO4_Va_O2,2.8884999999999996,-2.0175675590229885,1.2117565074226204,1.4357606009606547,3.8500696608523306,1,233,Na4GeO4_Va_O2233,-2.0,-1.8866987640952504,-1.8866987640952504,0.9433493820476252,-1.502819088333178,8.933942472343457
4192,Na4GeO4,Na4GeO4_Va_O3,2.8884999999999996,-2.0175675590229885,1.2368473420196695,1.44457099810889,4.922840820000042,0,269,Na4GeO4_Va_O3269,-2.0,-1.931931310690025,-1.931931310690025,0.9659656553450128,-1.502819088333178,9.148128741421287
4195,Na4GeO4,Na4GeO4_Va_O3,2.8884999999999996,-2.0175675590229885,1.2368473420196695,1.44457099810889,3.789498769588184,1,269,Na4GeO4_Va_O3269,-2.0,-1.931931310690025,-1.931931310690025,0.9659656553450128,-1.502819088333178,9.148128741421287
4198,Na4GeO4,Na4GeO4_Va_O3,2.8884999999999996,-2.0175675590229885,1.2368473420196695,1.44457099810889,3.3827502295179506,2,269,Na4GeO4_Va_O3269,-2.0,-1.931931310690025,-1.931931310690025,0.9659656553450128,-1.502819088333178,9.148128741421287
4201,Na4GeO4,Na4GeO4_Va_O4,2.8884999999999996,-2.0175675590229885,1.3449276547576416,1.4199232606298169,4.630482240000115,0,323,Na4GeO4_Va_O4323,-2.0,-1.729073189760575,-1.729073189760575,0.8645365948802874,-1.502819088333178,6.214632438805337
4204,Na4GeO4,Na4GeO4_Va_O4,2.8884999999999996,-2.0175675590229885,1.3449276547576416,1.4199232606298169,3.604577191325888,1,323,Na4GeO4_Va_O4323,-2.0,-1.729073189760575,-1.729073189760575,0.8645365948802874,-1.502819088333178,6.214632438805337
4207,Na4GeO4,Na4GeO4_Va_O4,2.8884999999999996,-2.0175675590229885,1.3449276547576416,1.4199232606298169,2.8046662916267553,2,323,Na4GeO4_Va_O4323,-2.0,-1.729073189760575,-1.729073189760575,0.8645365948802874,-1.502819088333178,6.214632438805337
4210,Na4PbO4,Na4PbO4_Va_O1,1.2815,-1.610200159578544,1.2323834548105834,1.066186482334869,2.74896658000001,0,215,Na4PbO4_Va_O1215,-2.0,-1.8731338481684832,-1.8731338481684836,0.9365669240842416,-0.2712847561180753,6.915886942474938
4213,Na4PbO4,Na4PbO4_Va_O1,1.2815,-1.610200159578544,1.2323834548105834,1.066186482334869,2.1552812423927836,1,215,Na4PbO4_Va_O1215,-2.0,-1.8731338481684832,-1.8731338481684836,0.9365669240842416,-0.2712847561180753,6.915886942474938
4216,Na4PbO4,Na4PbO4_Va_O1,1.2815,-1.610200159578544,1.2323834548105834,1.066186482334869,2.339504414193887,2,215,Na4PbO4_Va_O1215,-2.0,-1.8731338481684832,-1.8731338481684836,0.9365669240842416,-0.2712847561180753,6.915886942474938
4219,Na4PbO4,Na4PbO4_Va_O2,1.2815,-1.610200159578544,1.2246366108679725,1.0451122066586036,2.725313049999963,0,251,Na4PbO4_Va_O2251,-2.0,-1.8972512358625144,-1.8972512358625144,0.9486256179312572,-0.2712847561180753,7.004931901436544
4222,Na4PbO4,Na4PbO4_Va_O2,1.2815,-1.610200159578544,1.2246366108679725,1.0451122066586036,2.23186916188617,1,251,Na4PbO4_Va_O2251,-2.0,-1.8972512358625144,-1.8972512358625144,0.9486256179312572,-0.2712847561180753,7.004931901436544
4225,Na4PbO4,Na4PbO4_Va_O2,1.2815,-1.610200159578544,1.2246366108679725,1.0451122066586036,1.7110355384834677,2,251,Na4PbO4_Va_O2251,-2.0,-1.8972512358625144,-1.8972512358625144,0.9486256179312572,-0.2712847561180753,7.004931901436544
4228,Na4PbO4,Na4PbO4_Va_O3,1.2815,-1.610200159578544,1.214450048156124,1.0536682905084844,2.75807702999999,0,287,Na4PbO4_Va_O3287,-2.0,-1.8028357202970835,-1.8028357202970835,0.901417860148542,-0.2712847561180753,6.656335867093103
4231,Na4PbO4,Na4PbO4_Va_O3,1.2815,-1.610200159578544,1.214450048156124,1.0536682905084844,2.2212977650978862,1,287,Na4PbO4_Va_O3287,-2.0,-1.8028357202970835,-1.8028357202970835,0.901417860148542,-0.2712847561180753,6.656335867093103
4234,Na4PbO4,Na4PbO4_Va_O3,1.2815,-1.610200159578544,1.214450048156124,1.0536682905084844,1.639857670962006,2,287,Na4PbO4_Va_O3287,-2.0,-1.8028357202970835,-1.8028357202970835,0.901417860148542,-0.2712847561180753,6.656335867093103
4237,Na4PbO4,Na4PbO4_Va_O4,1.2815,-1.610200159578544,1.4285521221202382,1.1685431877800525,2.288921259999947,0,323,Na4PbO4_Va_O4323,-2.0,-1.7945382722878374,-1.7945382722878376,0.8972691361439187,-0.2712847561180753,4.5780855689341
4238,Na4SiO4,Na4SiO4_Va_O1,3.3997,-2.3901058923563228,1.2509857988408335,1.7846678399703702,6.588761620000136,0,305,Na4SiO4_Va_O1305,-2.0,-2.015399770162887,-2.0153997701628867,1.0076998850814436,-2.158566424325179,10.603858085192108
4241,Na4SiO4,Na4SiO4_Va_O1,3.3997,-2.3901058923563228,1.2509857988408335,1.7846678399703702,4.878239329461296,1,305,Na4SiO4_Va_O1305,-2.0,-2.015399770162887,-2.0153997701628867,1.0076998850814436,-2.158566424325179,10.603858085192108
4244,Na4SiO4,Na4SiO4_Va_O1,3.3997,-2.3901058923563228,1.2509857988408335,1.7846678399703702,3.992187177720186,2,305,Na4SiO4_Va_O1305,-2.0,-2.015399770162887,-2.0153997701628867,1.0076998850814436,-2.158566424325179,10.603858085192108
4247,Na4SiO4,Na4SiO4_Va_O2,3.3997,-2.3901058923563228,1.2277981386290096,1.806239720956594,6.670062450000055,0,233,Na4SiO4_Va_O2233,-2.0,-2.190792339971253,-2.190792339971253,1.0953961699856265,-2.158566424325179,11.526671487763227
4250,Na4SiO4,Na4SiO4_Va_O2,3.3997,-2.3901058923563228,1.2277981386290096,1.806239720956594,5.006790119867469,1,233,Na4SiO4_Va_O2233,-2.0,-2.190792339971253,-2.190792339971253,1.0953961699856265,-2.158566424325179,11.526671487763227
4253,Na4SiO4,Na4SiO4_Va_O2,3.3997,-2.3901058923563228,1.2277981386290096,1.806239720956594,2.8787689642178567,2,233,Na4SiO4_Va_O2233,-2.0,-2.190792339971253,-2.190792339971253,1.0953961699856265,-2.158566424325179,11.526671487763227
4256,Na4SiO4,Na4SiO4_Va_O3,3.3997,-2.3901058923563228,1.2592779405693129,1.8281771317708524,6.619674010000049,0,269,Na4SiO4_Va_O3269,-2.0,-2.171243638230508,-2.171243638230508,1.085621819115254,-2.158566424325179,11.423817621211553
4259,Na4SiO4,Na4SiO4_Va_O3,3.3997,-2.3901058923563228,1.2592779405693129,1.8281771317708524,4.983458396477866,1,269,Na4SiO4_Va_O3269,-2.0,-2.171243638230508,-2.171243638230508,1.085621819115254,-2.158566424325179,11.423817621211553
4262,Na4SiO4,Na4SiO4_Va_O3,3.3997,-2.3901058923563228,1.2592779405693129,1.8281771317708524,4.2775339188746795,2,269,Na4SiO4_Va_O3269,-2.0,-2.171243638230508,-2.171243638230508,1.085621819115254,-2.158566424325179,11.423817621211553
4265,Na4SiO4,Na4SiO4_Va_O4,3.3997,-2.3901058923563228,1.3437535379992207,1.7779377187172276,6.424721190000023,0,323,Na4SiO4_Va_O4323,-2.0,-1.9362954857295065,-1.9713426257338065,0.9681477428647532,-2.158566424325179,7.978293913376415
4267,Na4SiO4,Na4SiO4_Va_O4,3.3997,-2.3901058923563228,1.3437535379992207,1.7779377187172276,4.917252691735099,1,323,Na4SiO4_Va_O4323,-2.0,-1.9362954857295065,-1.9713426257338065,0.9681477428647532,-2.158566424325179,7.978293913376415
4269,Na4SnO3,Na4SnO3_Va_O1,1.8379000000000003,-1.657075410775862,1.1969717726681846,2.239801726413944,5.2327277900000215,0,215,Na4SnO3_Va_O1215,-2.0,-1.7605146837136114,-1.7605146837136114,0.8802573418568057,-1.454625234810769,6.925374290911066
4271,Na4SnO3,Na4SnO3_Va_O1,1.8379000000000003,-1.657075410775862,1.1969717726681846,2.239801726413944,3.500444338946916,1,215,Na4SnO3_Va_O1215,-2.0,-1.7605146837136114,-1.7605146837136114,0.8802573418568057,-1.454625234810769,6.925374290911066
4273,Na4SnO3,Na4SnO3_Va_O2,1.8379000000000003,-1.657075410775862,1.177413117691618,2.0246583033282284,5.14473260000012,0,251,Na4SnO3_Va_O2251,-2.0,-1.754014892349322,-1.754014892349322,0.877007446174661,-1.454625234810769,6.899805922508943
4275,Na4SnO3,Na4SnO3_Va_O2,1.8379000000000003,-1.657075410775862,1.177413117691618,2.0246583033282284,3.519719692742215,1,251,Na4SnO3_Va_O2251,-2.0,-1.754014892349322,-1.754014892349322,0.877007446174661,-1.454625234810769,6.899805922508943
4277,Na4SnO3,Na4SnO3_Va_O3,1.8379000000000003,-1.657075410775862,1.1663906719867578,1.9981502611153077,5.0984747999999716,0,287,Na4SnO3_Va_O3287,-2.0,-1.7144287646400922,-1.714428764640092,0.8572143823200461,-1.454625234810769,6.744085124693195
4279,Na4SnO3,Na4SnO3_Va_O3,1.8379000000000003,-1.657075410775862,1.1663906719867578,1.9981502611153077,3.4690078851305453,1,287,Na4SnO3_Va_O3287,-2.0,-1.7144287646400922,-1.714428764640092,0.8572143823200461,-1.454625234810769,6.744085124693195
4281,Na4SnO4,Na4SnO4_Va_O1,2.1317,-1.8676039212452116,1.1892804405561148,1.1507983414686145,4.079619819999957,0,215,Na4SnO4_Va_O1215,-2.0,-1.8357592645245593,-1.8357592645245595,0.9178796322622796,-1.538575818365933,7.4282749149466145
4284,Na4SnO4,Na4SnO4_Va_O1,2.1317,-1.8676039212452116,1.1892804405561148,1.1507983414686145,3.287664696323242,1,215,Na4SnO4_Va_O1215,-2.0,-1.8357592645245593,-1.8357592645245595,0.9178796322622796,-1.538575818365933,7.4282749149466145
4287,Na4SnO4,Na4SnO4_Va_O1,2.1317,-1.8676039212452116,1.1892804405561148,1.1507983414686145,3.260668931082084,2,215,Na4SnO4_Va_O1215,-2.0,-1.8357592645245593,-1.8357592645245595,0.9178796322622796,-1.538575818365933,7.4282749149466145
4290,Na4SnO4,Na4SnO4_Va_O2,2.1317,-1.8676039212452116,1.165292343016625,1.154792715987451,4.134188939999953,0,251,Na4SnO4_Va_O2251,-2.0,-1.771731819116022,-1.771731819116022,0.885865909558011,-1.538575818365933,7.169192215059203
4293,Na4SnO4,Na4SnO4_Va_O2,2.1317,-1.8676039212452116,1.165292343016625,1.154792715987451,3.3692433076297377,1,251,Na4SnO4_Va_O2251,-2.0,-1.771731819116022,-1.771731819116022,0.885865909558011,-1.538575818365933,7.169192215059203
4296,Na4SnO4,Na4SnO4_Va_O2,2.1317,-1.8676039212452116,1.165292343016625,1.154792715987451,2.3036296523605677,2,251,Na4SnO4_Va_O2251,-2.0,-1.771731819116022,-1.771731819116022,0.885865909558011,-1.538575818365933,7.169192215059203
4299,Na4SnO4,Na4SnO4_Va_O3,2.1317,-1.8676039212452116,1.1727474765695347,1.1440239344205128,4.070681170000066,0,287,Na4SnO4_Va_O3287,-2.0,-1.8175861377280875,-1.8175861377280875,0.9087930688640438,-1.538575818365933,7.354738594298745
4302,Na4SnO4,Na4SnO4_Va_O3,2.1317,-1.8676039212452116,1.1727474765695347,1.1440239344205128,3.3105133025008993,1,287,Na4SnO4_Va_O3287,-2.0,-1.8175861377280875,-1.8175861377280875,0.9087930688640438,-1.538575818365933,7.354738594298745
4305,Na4SnO4,Na4SnO4_Va_O3,2.1317,-1.8676039212452116,1.1727474765695347,1.1440239344205128,2.400401720304525,2,287,Na4SnO4_Va_O3287,-2.0,-1.8175861377280875,-1.8175861377280875,0.9087930688640438,-1.538575818365933,7.354738594298745
4308,Na4SnO4,Na4SnO4_Va_O4,2.1317,-1.8676039212452116,1.3216859107307752,1.1784431761226957,3.656326720000047,0,323,Na4SnO4_Va_O4323,-2.0,-1.7315635826795093,-1.7315635826795095,0.8657817913397546,-1.538575818365933,5.030895046801785
4311,Na4SnO4,Na4SnO4_Va_O4,2.1317,-1.8676039212452116,1.3216859107307752,1.1784431761226957,3.001566912093745,1,323,Na4SnO4_Va_O4323,-2.0,-1.7315635826795093,-1.7315635826795095,0.8657817913397546,-1.538575818365933,5.030895046801785
4314,Na4SnO4,Na4SnO4_Va_O4,2.1317,-1.8676039212452116,1.3216859107307752,1.1784431761226957,2.661218934857028,2,323,Na4SnO4_Va_O4323,-2.0,-1.7315635826795093,-1.7315635826795095,0.8657817913397546,-1.538575818365933,5.030895046801785
4323,Na6PbO5,Na6PbO5_Va_O1,1.1032,-1.5700874682758617,1.349658804960484,1.508565196276811,3.696000540000009,0,91,Na6PbO5_Va_O191,-2.0,-1.7280928785943963,-1.7280928785943963,0.8640464392971982,-0.2712847561180753,5.394474766596139
4326,Na6PbO5,Na6PbO5_Va_O1,1.1032,-1.5700874682758617,1.349658804960484,1.508565196276811,3.041572487930762,1,91,Na6PbO5_Va_O191,-2.0,-1.7280928785943963,-1.7280928785943963,0.8640464392971982,-0.2712847561180753,5.394474766596139
4329,Na6PbO5,Na6PbO5_Va_O1,1.1032,-1.5700874682758617,1.349658804960484,1.508565196276811,2.799810160383417,2,91,Na6PbO5_Va_O191,-2.0,-1.7280928785943963,-1.7280928785943963,0.8640464392971982,-0.2712847561180753,5.394474766596139
4332,Na6PbO5,Na6PbO5_Va_O2,1.1032,-1.5700874682758617,1.2844735360975492,1.280438359370244,3.795047200000008,0,95,Na6PbO5_Va_O295,-2.0,-1.8072660596433383,-1.807266059643338,0.9036330298216692,-0.2712847561180753,7.703762150012071
4335,Na6PbO5,Na6PbO5_Va_O2,1.1032,-1.5700874682758617,1.2844735360975492,1.280438359370244,2.814572594088654,1,95,Na6PbO5_Va_O295,-2.0,-1.8072660596433383,-1.807266059643338,0.9036330298216692,-0.2712847561180753,7.703762150012071
4338,Na6PbO5,Na6PbO5_Va_O2,1.1032,-1.5700874682758617,1.2844735360975492,1.280438359370244,2.3596155261432297,2,95,Na6PbO5_Va_O295,-2.0,-1.8072660596433383,-1.807266059643338,0.9036330298216692,-0.2712847561180753,7.703762150012071
4341,NaAlO2,NaAlO2_Va_O1,3.9174,-2.933970703512931,1.5016528031852792,1.7853031428518185,6.998969500000053,0,215,NaAlO2_Va_O1215,-2.0,-1.9813712187374009,-2.0103641221976196,0.9906856093687004,-2.158566424325179,7.53576880103058
4344,NaAlO2,NaAlO2_Va_O1,3.9174,-2.933970703512931,1.5016528031852792,1.7853031428518185,5.395552872589185,1,215,NaAlO2_Va_O1215,-2.0,-1.9813712187374009,-2.0103641221976196,0.9906856093687004,-2.158566424325179,7.53576880103058