,formula,full_name,band_gap,formation_energy,nn_ave_eleneg,o2p_center_from_vbm,vacancy_formation_energy,charge,vacancy_index,merge_on,valence,bv_sum_Crystal,bv_sum_nn,BVS_ratio,vr_max,Eb_sum
4844,Rb2Si3SnO9,Rb2Si3SnO9_Va_O1,3.9782,-2.8654779920000006,2.265288420966906,2.3971505888352076,4.2064208805913905,1,95,Rb2Si3SnO9_Va_O195,-2.0,-2.0704281163874567,-2.193959191351033,1.0352140581937284,-1.538575818365933,7.459169650182224
4847,Rb2Si3SnO9,Rb2Si3SnO9_Va_O1,3.9782,-2.8654779920000006,2.265288420966906,2.3971505888352076,2.877432065435517,2,95,Rb2Si3SnO9_Va_O195,-2.0,-2.0704281163874567,-2.193959191351033,1.0352140581937284,-1.538575818365933,7.459169650182224
4850,Rb2Si3SnO9,Rb2Si3SnO9_Va_O2,3.9782,-2.8654779920000006,2.101580600842526,3.5178546404919366,6.3304400400001075,0,119,Rb2Si3SnO9_Va_O2119,-2.0,-2.2567661072806136,-2.2567661072806136,1.1283830536403068,-1.538575818365933,10.872429497326554
4853,Rb2Si3SnO9,Rb2Si3SnO9_Va_O2,3.9782,-2.8654779920000006,2.101580600842526,3.5178546404919366,4.365245771844024,1,119,Rb2Si3SnO9_Va_O2119,-2.0,-2.2567661072806136,-2.2567661072806136,1.1283830536403068,-1.538575818365933,10.872429497326554
4856,Rb2Si3SnO9,Rb2Si3SnO9_Va_O2,3.9782,-2.8654779920000006,2.101580600842526,3.5178546404919366,0.3105919551332654,2,119,Rb2Si3SnO9_Va_O2119,-2.0,-2.2567661072806136,-2.2567661072806136,1.1283830536403068,-1.538575818365933,10.872429497326554
4859,Rb2Sn2O3,Rb2Sn2O3_Va_O1,0.9453999999999998,-1.7204352542857149,1.6478351694372932,3.5201396409054064,4.735854819999995,0,83,Rb2Sn2O3_Va_O183,-2.0,-1.7446811228640977,-1.4450353763727974,0.8723405614320489,-1.454625234810769,7.1818496142512895
4861,Rb2Sn2O3,Rb2Sn2O3_Va_O1,0.9453999999999998,-1.7204352542857149,1.6478351694372932,3.5201396409054064,2.5439192014517182,1,83,Rb2Sn2O3_Va_O183,-2.0,-1.7446811228640977,-1.4450353763727974,0.8723405614320489,-1.454625234810769,7.1818496142512895
4863,Rb2SnO2,Rb2SnO2_Va_O1,2.239,-1.6441546475000002,1.6389673388076338,2.815253649531358,4.6254747100000575,0,455,Rb2SnO2_Va_O1455,-2.0,-1.6071135825697511,-1.573854380445901,0.8035567912848756,-1.454625234810769,5.830442821598505
4865,Rb2SnO2,Rb2SnO2_Va_O1,2.239,-1.6441546475000002,1.6389673388076338,2.815253649531358,2.459091906969359,1,455,Rb2SnO2_Va_O1455,-2.0,-1.6071135825697511,-1.573854380445901,0.8035567912848756,-1.454625234810769,5.830442821598505
4867,Rb2SnO2,Rb2SnO2_Va_O2,2.239,-1.6441546475000002,1.2059172084529577,1.8505156376234224,4.986553820000049,0,479,Rb2SnO2_Va_O2479,-2.0,-1.5853704639525854,-1.5853704639525852,0.7926852319762927,-1.454625234810769,5.586524054710117
4870,Rb2SnO2,Rb2SnO2_Va_O2,2.239,-1.6441546475000002,1.2059172084529577,1.8505156376234224,3.2831193478226393,1,479,Rb2SnO2_Va_O2479,-2.0,-1.5853704639525854,-1.5853704639525852,0.7926852319762927,-1.454625234810769,5.586524054710117
4873,Rb2SnO2,Rb2SnO2_Va_O2,2.239,-1.6441546475000002,1.2059172084529577,1.8505156376234224,2.7058166484933683,2,479,Rb2SnO2_Va_O2479,-2.0,-1.5853704639525854,-1.5853704639525852,0.7926852319762927,-1.454625234810769,5.586524054710117
4876,Rb2SnO3,Rb2SnO3_Va_O1,2.2715,-1.923212555,1.6808750108243984,1.95237329003421,4.523463749999687,0,431,Rb2SnO3_Va_O1431,-2.0,-1.743028122371776,-1.6770179856291496,0.871514061185888,-1.538575818365933,7.567960420242492
4879,Rb2SnO3,Rb2SnO3_Va_O1,2.2715,-1.923212555,1.6808750108243984,1.95237329003421,2.681420398324973,1,431,Rb2SnO3_Va_O1431,-2.0,-1.743028122371776,-1.6770179856291496,0.871514061185888,-1.538575818365933,7.567960420242492
4882,Rb2SnO3,Rb2SnO3_Va_O1,2.2715,-1.923212555,1.6808750108243984,1.95237329003421,0.9367689362246332,2,431,Rb2SnO3_Va_O1431,-2.0,-1.743028122371776,-1.6770179856291496,0.871514061185888,-1.538575818365933,7.567960420242492
4885,Rb2SnO3,Rb2SnO3_Va_O2,2.2715,-1.923212555,1.4050702572516909,0.9654521921931688,3.550404869999861,0,359,Rb2SnO3_Va_O2359,-2.0,-1.5351882427659522,-1.399355895005945,0.7675941213829761,-1.538575818365933,4.832741242620967
4888,Rb2SnO3,Rb2SnO3_Va_O2,2.2715,-1.923212555,1.4050702572516909,0.9654521921931688,2.973184193470278,1,359,Rb2SnO3_Va_O2359,-2.0,-1.5351882427659522,-1.399355895005945,0.7675941213829761,-1.538575818365933,4.832741242620967
4891,Rb2SnO3,Rb2SnO3_Va_O2,2.2715,-1.923212555,1.4050702572516909,0.9654521921931688,2.8060104193039517,2,359,Rb2SnO3_Va_O2359,-2.0,-1.5351882427659522,-1.399355895005945,0.7675941213829761,-1.538575818365933,4.832741242620967
4894,Rb3AlO3,Rb3AlO3_Va_O1,2.8213,-2.192958231785714,1.1030633211895935,1.0623130519345072,6.206774539999978,0,95,Rb3AlO3_Va_O195,-2.0,-0.7951430549783397,-1.5786981908902975,0.3975715274891698,-1.7562254794348755,1.058448267666344
4897,Rb3AlO3,Rb3AlO3_Va_O1,2.8213,-2.192958231785714,1.1030633211895935,1.0623130519345072,4.890101919209602,1,95,Rb3AlO3_Va_O195,-2.0,-0.7951430549783397,-1.5786981908902975,0.3975715274891698,-1.7562254794348755,1.058448267666344
4900,Rb3AlO3,Rb3AlO3_Va_O1,2.8213,-2.192958231785714,1.1030633211895935,1.0623130519345072,4.610775115424323,2,95,Rb3AlO3_Va_O195,-2.0,-0.7951430549783397,-1.5786981908902975,0.3975715274891698,-1.7562254794348755,1.058448267666344
4903,Rb3AlO3,Rb3AlO3_Va_O2,2.8213,-2.192958231785714,1.3077788944130129,2.0319298353912956,6.547884360000021,0,111,Rb3AlO3_Va_O2111,-2.0,-1.4970242548435742,-1.497024254843574,0.7485121274217871,-1.7562254794348755,4.716842079454387
4906,Rb3AlO3,Rb3AlO3_Va_O2,2.8213,-2.192958231785714,1.3077788944130129,2.0319298353912956,4.6028981458250815,1,111,Rb3AlO3_Va_O2111,-2.0,-1.4970242548435742,-1.497024254843574,0.7485121274217871,-1.7562254794348755,4.716842079454387
4909,Rb3AlO3,Rb3AlO3_Va_O2,2.8213,-2.192958231785714,1.3077788944130129,2.0319298353912956,3.4813683864613636,2,111,Rb3AlO3_Va_O2111,-2.0,-1.4970242548435742,-1.497024254843574,0.7485121274217871,-1.7562254794348755,4.716842079454387
4912,Rb3BiO3,Rb3BiO3_Va_O1,3.1835,-1.6211958614285713,1.2368454618170004,1.193738065945551,4.205223209999881,0,223,Rb3BiO3_Va_O1223,-2.0,-1.7638088743545763,-1.619062983106074,0.8819044371772882,-0.9858147743813158,5.757472148721568
4915,Rb3BiO3,Rb3BiO3_Va_O1,3.1835,-1.6211958614285713,1.2368454618170004,1.193738065945551,2.687356836000304,1,223,Rb3BiO3_Va_O1223,-2.0,-1.7638088743545763,-1.619062983106074,0.8819044371772882,-0.9858147743813158,5.757472148721568
4918,Rb3BiO3,Rb3BiO3_Va_O1,3.1835,-1.6211958614285713,1.2368454618170004,1.193738065945551,2.5092579751863906,2,223,Rb3BiO3_Va_O1223,-2.0,-1.7638088743545763,-1.619062983106074,0.8819044371772882,-0.9858147743813158,5.757472148721568
4921,Rb3GaO3,Rb3GaO3_Va_O1,2.5813,-1.829943027142856,1.3586028396255856,1.9188954109317824,5.150004670000053,0,79,Rb3GaO3_Va_O179,-2.0,-1.2972807063870495,-1.29728070638705,0.6486403531935249,-1.7562254794348755,3.8390438118829797
4924,Rb3GaO3,Rb3GaO3_Va_O1,2.5813,-1.829943027142856,1.3586028396255856,1.9188954109317824,3.3879056804156233,1,79,Rb3GaO3_Va_O179,-2.0,-1.2972807063870495,-1.29728070638705,0.6486403531935249,-1.7562254794348755,3.8390438118829797
4927,Rb3GaO3,Rb3GaO3_Va_O1,2.5813,-1.829943027142856,1.3586028396255856,1.9188954109317824,2.0656224372296386,2,79,Rb3GaO3_Va_O179,-2.0,-1.2972807063870495,-1.29728070638705,0.6486403531935249,-1.7562254794348755,3.8390438118829797
4930,Rb3GaO3,Rb3GaO3_Va_O2,2.5813,-1.829943027142856,1.1253175271645046,1.1116290921680183,4.965271909999965,0,111,Rb3GaO3_Va_O2111,-2.0,-1.4753282365377782,-1.475328236537778,0.7376641182688891,-1.7562254794348755,6.147036844390935
4933,Rb3GaO3,Rb3GaO3_Va_O2,2.5813,-1.829943027142856,1.1253175271645046,1.1116290921680183,3.808823772061809,1,111,Rb3GaO3_Va_O2111,-2.0,-1.4753282365377782,-1.475328236537778,0.7376641182688891,-1.7562254794348755,6.147036844390935
4936,Rb3GaO3,Rb3GaO3_Va_O2,2.5813,-1.829943027142856,1.1253175271645046,1.1116290921680183,3.2772438056032462,2,111,Rb3GaO3_Va_O2111,-2.0,-1.4753282365377782,-1.475328236537778,0.7376641182688891,-1.7562254794348755,6.147036844390935
4939,Rb3InO3,Rb3InO3_Va_O1,1.9467,-1.6420714696428569,1.067479041082411,0.7459525592720849,3.727990780000036,0,111,Rb3InO3_Va_O1111,-2.0,-1.2028096297855912,-1.027379829830764,0.6014048148927956,-1.5993795332042406,4.65007885951856
4942,Rb3InO3,Rb3InO3_Va_O1,1.9467,-1.6420714696428569,1.067479041082411,0.7459525592720849,3.0491099082996236,1,111,Rb3InO3_Va_O1111,-2.0,-1.2028096297855912,-1.027379829830764,0.6014048148927956,-1.5993795332042406,4.65007885951856
4945,Rb3InO3,Rb3InO3_Va_O1,1.9467,-1.6420714696428569,1.067479041082411,0.7459525592720849,2.8456960577457795,2,111,Rb3InO3_Va_O1111,-2.0,-1.2028096297855912,-1.027379829830764,0.6014048148927956,-1.5993795332042406,4.65007885951856
4948,Rb3InO3,Rb3InO3_Va_O2,1.9467,-1.6420714696428569,1.275996888690673,1.512729800600991,4.136471649999985,0,107,Rb3InO3_Va_O2107,-2.0,-1.3679431657768517,-1.3328753903438115,0.6839715828884259,-1.5993795332042406,5.230744505800236
4951,Rb3InO3,Rb3InO3_Va_O2,1.9467,-1.6420714696428569,1.275996888690673,1.512729800600991,2.953046701949928,1,107,Rb3InO3_Va_O2107,-2.0,-1.3679431657768517,-1.3328753903438115,0.6839715828884259,-1.5993795332042406,5.230744505800236
4954,Rb3InO3,Rb3InO3_Va_O2,1.9467,-1.6420714696428569,1.275996888690673,1.512729800600991,2.2596375424337887,2,107,Rb3InO3_Va_O2107,-2.0,-1.3679431657768517,-1.3328753903438115,0.6839715828884259,-1.5993795332042406,5.230744505800236
4957,Rb3InO3,Rb3InO3_Va_O3,1.9467,-1.6420714696428569,1.0834265971813364,0.6967453819358194,3.61898856,0,103,Rb3InO3_Va_O3103,-2.0,-1.27663846798843,-1.2766384679884302,0.638319233994215,-1.5993795332042406,3.688154433933831
4960,Rb3InO3,Rb3InO3_Va_O3,1.9467,-1.6420714696428569,1.0834265971813364,0.6967453819358194,2.9524912524728535,1,103,Rb3InO3_Va_O3103,-2.0,-1.27663846798843,-1.2766384679884302,0.638319233994215,-1.5993795332042406,3.688154433933831
4963,Rb3InO3,Rb3InO3_Va_O3,1.9467,-1.6420714696428569,1.0834265971813364,0.6967453819358194,2.9349519839995684,2,103,Rb3InO3_Va_O3103,-2.0,-1.27663846798843,-1.2766384679884302,0.638319233994215,-1.5993795332042406,3.688154433933831
4966,Rb3SbO3,Rb3SbO3_Va_O1,3.1791,-1.780475274285715,1.278245702464094,1.712103368442821,4.6617412500001,0,223,Rb3SbO3_Va_O1223,-2.0,-1.7658104057379518,-1.6147106684290586,0.8829052028689759,-1.2369755737418262,7.362479465127411
4968,Rb3SbO3,Rb3SbO3_Va_O1,3.1791,-1.780475274285715,1.278245702464094,1.712103368442821,2.899508239034974,1,223,Rb3SbO3_Va_O1223,-2.0,-1.7658104057379518,-1.6147106684290586,0.8829052028689759,-1.2369755737418262,7.362479465127411
4970,Rb3TlO3,Rb3TlO3_Va_O1,1.5343999999999998,-1.3742784501190477,1.0405368336763197,0.8603491913254215,2.52481715999995,0,107,Rb3TlO3_Va_O1107,-2.0,-1.8822970449490544,-1.8822970449490544,0.9411485224745272,-0.5778080287901701,4.902200825079397
4973,Rb3TlO3,Rb3TlO3_Va_O1,1.5343999999999998,-1.3742784501190477,1.0405368336763197,0.8603491913254215,1.9101254138248265,1,107,Rb3TlO3_Va_O1107,-2.0,-1.8822970449490544,-1.8822970449490544,0.9411485224745272,-0.5778080287901701,4.902200825079397
4976,Rb3TlO3,Rb3TlO3_Va_O1,1.5343999999999998,-1.3742784501190477,1.0405368336763197,0.8603491913254215,1.6177423122381454,2,107,Rb3TlO3_Va_O1107,-2.0,-1.8822970449490544,-1.8822970449490544,0.9411485224745272,-0.5778080287901701,4.902200825079397
4979,Rb3TlO3,Rb3TlO3_Va_O2,1.5343999999999998,-1.3742784501190477,1.2046730369938634,1.4109851689396835,2.958439589999964,0,111,Rb3TlO3_Va_O2111,-2.0,-2.1110990542605084,-2.065054054756011,1.0555495271302542,-0.5778080287901701,6.8708469691581815
4982,Rb3TlO3,Rb3TlO3_Va_O2,1.5343999999999998,-1.3742784501190477,1.2046730369938634,1.4109851689396835,1.8681260245508344,1,111,Rb3TlO3_Va_O2111,-2.0,-2.1110990542605084,-2.065054054756011,1.0555495271302542,-0.5778080287901701,6.8708469691581815
4985,Rb3TlO3,Rb3TlO3_Va_O2,1.5343999999999998,-1.3742784501190477,1.2046730369938634,1.4109851689396835,0.9967806056978544,2,111,Rb3TlO3_Va_O2111,-2.0,-2.1110990542605084,-2.065054054756011,1.0555495271302542,-0.5778080287901701,6.8708469691581815
4988,Rb3TlO3,Rb3TlO3_Va_O3,1.5343999999999998,-1.3742784501190477,1.0201421598319538,0.931669723709982,2.607465979999981,0,91,Rb3TlO3_Va_O391,-2.0,-1.8097843024355065,-1.648170314963628,0.9048921512177532,-0.5778080287901701,6.481611984056931
4991,Rb3TlO3,Rb3TlO3_Va_O3,1.5343999999999998,-1.3742784501190477,1.0201421598319538,0.931669723709982,1.9548003054783052,1,91,Rb3TlO3_Va_O391,-2.0,-1.8097843024355065,-1.648170314963628,0.9048921512177532,-0.5778080287901701,6.481611984056931
4994,Rb3TlO3,Rb3TlO3_Va_O3,1.5343999999999998,-1.3742784501190477,1.0201421598319538,0.931669723709982,1.4943598331416612,2,91,Rb3TlO3_Va_O391,-2.0,-1.8097843024355065,-1.648170314963628,0.9048921512177532,-0.5778080287901701,6.481611984056931
4997,Rb4PbO4,Rb4PbO4_Va_O1,1.6033,-1.527302656666666,1.3070720157688454,0.9979510856281404,2.4869681399999397,0,323,Rb4PbO4_Va_O1323,-2.0,-1.5270854340816675,-1.5270854340816675,0.7635427170408339,-0.2712847561180753,3.5201872867844104
4999,Rb4PbO4,Rb4PbO4_Va_O1,1.6033,-1.527302656666666,1.3070720157688454,0.9979510856281404,1.839555225098825,1,323,Rb4PbO4_Va_O1323,-2.0,-1.5270854340816675,-1.5270854340816675,0.7635427170408339,-0.2712847561180753,3.5201872867844104
5001,Rb4PbO4,Rb4PbO4_Va_O2,1.6033,-1.527302656666666,1.22157927460758,0.8826131327184692,2.9218927599998867,0,305,Rb4PbO4_Va_O2305,-2.0,-1.6980205990564383,-1.698020599056438,0.8490102995282192,-0.2712847561180753,5.573283268512812
5003,Rb4PbO4,Rb4PbO4_Va_O2,1.6033,-1.527302656666666,1.22157927460758,0.8826131327184692,2.254076075919756,1,305,Rb4PbO4_Va_O2305,-2.0,-1.6980205990564383,-1.698020599056438,0.8490102995282192,-0.2712847561180753,5.573283268512812
5005,Rb4PbO4,Rb4PbO4_Va_O3,1.6033,-1.527302656666666,1.2601228870887389,0.95673797522315,2.7393282399999723,0,287,Rb4PbO4_Va_O3287,-2.0,-1.662001319521037,-1.6620013195210372,0.8310006597605185,-0.2712847561180753,5.455059939484832
5007,Rb4PbO4,Rb4PbO4_Va_O3,1.6033,-1.527302656666666,1.2601228870887389,0.95673797522315,2.109592822283207,1,287,Rb4PbO4_Va_O3287,-2.0,-1.662001319521037,-1.6620013195210372,0.8310006597605185,-0.2712847561180753,5.455059939484832
5009,Rb4PbO4,Rb4PbO4_Va_O4,1.6033,-1.527302656666666,1.2392494475657276,0.9434678655128452,2.6245563899998476,0,269,Rb4PbO4_Va_O4269,-2.0,-1.4970441830020875,-1.3372642857334502,0.7485220915010439,-0.2712847561180753,4.913633734470762
5011,Rb4PbO4,Rb4PbO4_Va_O4,1.6033,-1.527302656666666,1.2392494475657276,0.9434678655128452,1.9282202261311328,1,269,Rb4PbO4_Va_O4269,-2.0,-1.4970441830020875,-1.3372642857334502,0.7485220915010439,-0.2712847561180753,4.913633734470762
5013,Rb4SnO3,Rb4SnO3_Va_O1,1.7874,-1.5217606543749995,1.1747528504536422,1.894352379655548,4.902956429999799,0,233,Rb4SnO3_Va_O1233,-2.0,-1.42147408090452,-1.3681977171493287,0.7107370404522599,-1.454625234810769,5.008986433569356
5016,Rb4SnO3,Rb4SnO3_Va_O1,1.7874,-1.5217606543749995,1.1747528504536422,1.894352379655548,3.2311092499416096,1,233,Rb4SnO3_Va_O1233,-2.0,-1.42147408090452,-1.3681977171493287,0.7107370404522599,-1.454625234810769,5.008986433569356
5019,Rb4SnO3,Rb4SnO3_Va_O1,1.7874,-1.5217606543749995,1.1747528504536422,1.894352379655548,2.5340965997022895,2,233,Rb4SnO3_Va_O1233,-2.0,-1.42147408090452,-1.3681977171493287,0.7107370404522599,-1.454625234810769,5.008986433569356
5022,Rb4SnO3,Rb4SnO3_Va_O2,1.7874,-1.5217606543749995,1.1883874647645265,1.9674810029997856,4.968543149999855,0,251,Rb4SnO3_Va_O2251,-2.0,-1.5282456484282252,-1.4545483122780365,0.7641228242141126,-1.454625234810769,5.385227787809776
5024,Rb4SnO3,Rb4SnO3_Va_O2,1.7874,-1.5217606543749995,1.1883874647645265,1.9674810029997856,3.295304659902627,1,251,Rb4SnO3_Va_O2251,-2.0,-1.5282456484282252,-1.4545483122780365,0.7641228242141126,-1.454625234810769,5.385227787809776
5026,Rb4SnO3,Rb4SnO3_Va_O3,1.7874,-1.5217606543749995,1.177163951099402,1.86705331015707,4.880791679999797,0,287,Rb4SnO3_Va_O3287,-2.0,-1.4975177812585228,-1.497517781258523,0.7487588906292614,-1.454625234810769,5.276949014490448
5029,Rb4SnO3,Rb4SnO3_Va_O3,1.7874,-1.5217606543749995,1.177163951099402,1.86705331015707,3.2147122099618013,1,287,Rb4SnO3_Va_O3287,-2.0,-1.4975177812585228,-1.497517781258523,0.7487588906292614,-1.454625234810769,5.276949014490448
5032,Rb4SnO3,Rb4SnO3_Va_O3,1.7874,-1.5217606543749995,1.177163951099402,1.86705331015707,2.5565763443709018,2,287,Rb4SnO3_Va_O3287,-2.0,-1.4975177812585228,-1.497517781258523,0.7487588906292614,-1.454625234810769,5.276949014490448
5035,Rb4SnO4,Rb4SnO4_Va_O1,2.2470999999999997,-1.7707643350000004,1.2535575408013142,1.126526894597595,3.781155909999947,0,215,Rb4SnO4_Va_O1215,-2.0,-1.4670005903151988,-1.467000590315199,0.7335002951575994,-1.538575818365933,3.9014167692903947
5038,Rb4SnO4,Rb4SnO4_Va_O1,2.2470999999999997,-1.7707643350000004,1.2535575408013142,1.126526894597595,2.9671286458669197,1,215,Rb4SnO4_Va_O1215,-2.0,-1.4670005903151988,-1.467000590315199,0.7335002951575994,-1.538575818365933,3.9014167692903947
5041,Rb4SnO4,Rb4SnO4_Va_O1,2.2470999999999997,-1.7707643350000004,1.2535575408013142,1.126526894597595,2.927058583971658,2,215,Rb4SnO4_Va_O1215,-2.0,-1.4670005903151988,-1.467000590315199,0.7335002951575994,-1.538575818365933,3.9014167692903947
5044,Rb4SnO4,Rb4SnO4_Va_O2,2.2470999999999997,-1.7707643350000004,1.177260316119254,1.0449651115135987,4.168812089999969,0,251,Rb4SnO4_Va_O2251,-2.0,-1.653845852983675,-1.653845852983675,0.8269229264918375,-1.538575818365933,6.014223289536078
5047,Rb4SnO4,Rb4SnO4_Va_O2,2.2470999999999997,-1.7707643350000004,1.177260316119254,1.0449651115135987,3.2493054571040485,1,251,Rb4SnO4_Va_O2251,-2.0,-1.653845852983675,-1.653845852983675,0.8269229264918375,-1.538575818365933,6.014223289536078
5050,Rb4SnO4,Rb4SnO4_Va_O2,2.2470999999999997,-1.7707643350000004,1.177260316119254,1.0449651115135987,3.087461587107363,2,251,Rb4SnO4_Va_O2251,-2.0,-1.653845852983675,-1.653845852983675,0.8269229264918375,-1.538575818365933,6.014223289536078
5053,Rb4SnO4,Rb4SnO4_Va_O3,2.2470999999999997,-1.7707643350000004,1.2171300794874034,1.109757744027597,3.964887650000159,0,287,Rb4SnO4_Va_O3287,-2.0,-1.6002450832470638,-1.6002450832470638,0.8001225416235319,-1.538575818365933,5.819303674080134
5056,Rb4SnO4,Rb4SnO4_Va_O3,2.2470999999999997,-1.7707643350000004,1.2171300794874034,1.109757744027597,3.1248569645076865,1,287,Rb4SnO4_Va_O3287,-2.0,-1.6002450832470638,-1.6002450832470638,0.8001225416235319,-1.538575818365933,5.819303674080134
5059,Rb4SnO4,Rb4SnO4_Va_O3,2.2470999999999997,-1.7707643350000004,1.2171300794874034,1.109757744027597,3.089286333095043,2,287,Rb4SnO4_Va_O3287,-2.0,-1.6002450832470638,-1.6002450832470638,0.8001225416235319,-1.538575818365933,5.819303674080134
5062,Rb4SnO4,Rb4SnO4_Va_O4,2.2470999999999997,-1.7707643350000004,1.1979440958840029,1.0817809391754487,3.8824074400000743,0,323,Rb4SnO4_Va_O4323,-2.0,-1.4293881563009618,-1.2728068899149805,0.7146940781504809,-1.538575818365933,5.197981132221721
5065,Rb4SnO4,Rb4SnO4_Va_O4,2.2470999999999997,-1.7707643350000004,1.1979440958840029,1.0817809391754487,3.008054131243475,1,323,Rb4SnO4_Va_O4323,-2.0,-1.4293881563009618,-1.2728068899149805,0.7146940781504809,-1.538575818365933,5.197981132221721
5068,Rb4SnO4,Rb4SnO4_Va_O4,2.2470999999999997,-1.7707643350000004,1.1979440958840029,1.0817809391754487,2.935169418755939,2,323,Rb4SnO4_Va_O4323,-2.0,-1.4293881563009618,-1.2728068899149805,0.7146940781504809,-1.538575818365933,5.197981132221721
5071,Rb6Si2O7,Rb6Si2O7_Va_O1,3.3157999999999994,-2.4265757626666664,1.2846846109124377,1.886047280338284,6.435236069999869,0,275,Rb6Si2O7_Va_O1275,-2.0,-1.1974620298499632,-1.9550676547049664,0.5987310149249816,-1.7562254794348755,2.884508379771233
5073,Rb6Si2O7,Rb6Si2O7_Va_O1,3.3157999999999994,-2.4265757626666664,1.2846846109124377,1.886047280338284,4.709131243774137,1,275,Rb6Si2O7_Va_O1275,-2.0,-1.1974620298499632,-1.9550676547049664,0.5987310149249816,-1.7562254794348755,2.884508379771233