,formula,full_name,band_gap,formation_energy,nn_ave_eleneg,o2p_center_from_vbm,vacancy_formation_energy,charge,vacancy_index,merge_on,valence,bv_sum_Crystal,bv_sum_nn,BVS_ratio,vr_max,Eb_sum
0,Al2Ge2O7,Al2Ge2O7_Va_O1,3.2978,-2.702367327272727,2.406341895839076,3.103427181710611,5.416601799999976,0,191,Al2Ge2O7_Va_O1191,-2.0,-2.0719793697597826,-2.0719793697597826,1.0359896848798913,-1.502819088333178,9.417029005787377
3,Al2Ge2O7,Al2Ge2O7_Va_O1,3.2978,-2.702367327272727,2.406341895839076,3.103427181710611,3.2180111249679175,1,191,Al2Ge2O7_Va_O1191,-2.0,-2.0719793697597826,-2.0719793697597826,1.0359896848798913,-1.502819088333178,9.417029005787377
6,Al2Ge2O7,Al2Ge2O7_Va_O1,3.2978,-2.702367327272727,2.406341895839076,3.103427181710611,-0.0150423495906109,2,191,Al2Ge2O7_Va_O1191,-2.0,-2.0719793697597826,-2.0719793697597826,1.0359896848798913,-1.502819088333178,9.417029005787377
9,Al2Ge2O7,Al2Ge2O7_Va_O2,3.2978,-2.702367327272727,2.3974576458626684,3.101687405729366,5.411478320000137,0,255,Al2Ge2O7_Va_O2255,-2.0,-2.0948241746062357,-2.0948241746062357,1.047412087303118,-1.502819088333178,9.520857351286564
12,Al2Ge2O7,Al2Ge2O7_Va_O2,3.2978,-2.702367327272727,2.3974576458626684,3.101687405729366,3.139259375311791,1,255,Al2Ge2O7_Va_O2255,-2.0,-2.0948241746062357,-2.0948241746062357,1.047412087303118,-1.502819088333178,9.520857351286564
15,Al2Ge2O7,Al2Ge2O7_Va_O2,3.2978,-2.702367327272727,2.3974576458626684,3.101687405729366,0.1390484039343733,2,255,Al2Ge2O7_Va_O2255,-2.0,-2.0948241746062357,-2.0948241746062357,1.047412087303118,-1.502819088333178,9.520857351286564
18,Al2Ge2O7,Al2Ge2O7_Va_O3,3.2978,-2.702367327272727,2.72604428315262,2.596100957120228,3.8145812599999633,0,287,Al2Ge2O7_Va_O3287,-2.0,-2.0335958997720756,-2.0335958997720756,1.0167979498860378,-1.502819088333178,7.65713745936788
20,Al2Ge2O7,Al2Ge2O7_Va_O3,3.2978,-2.702367327272727,2.72604428315262,2.596100957120228,2.8772777273070815,1,287,Al2Ge2O7_Va_O3287,-2.0,-2.0335958997720756,-2.0335958997720756,1.0167979498860378,-1.502819088333178,7.65713745936788
22,Al2Ge2O7,Al2Ge2O7_Va_O4,3.2978,-2.702367327272727,2.6131783167219456,2.043769290199058,4.388867460000151,0,351,Al2Ge2O7_Va_O4351,-2.0,-2.0179304870522605,-2.0179304870522605,1.0089652435261305,-1.502819088333178,6.485227991403768
25,Al2Ge2O7,Al2Ge2O7_Va_O4,3.2978,-2.702367327272727,2.6131783167219456,2.043769290199058,3.4321292086325075,1,351,Al2Ge2O7_Va_O4351,-2.0,-2.0179304870522605,-2.0179304870522605,1.0089652435261305,-1.502819088333178,6.485227991403768
28,Al2Ge2O7,Al2Ge2O7_Va_O4,3.2978,-2.702367327272727,2.6131783167219456,2.043769290199058,1.0379799850548563,2,351,Al2Ge2O7_Va_O4351,-2.0,-2.0179304870522605,-2.0179304870522605,1.0089652435261305,-1.502819088333178,6.485227991403768
31,Al2O3,Al2O3_Va_O1,6.039299999999999,-3.426551008000001,2.224895215865955,2.497321494687122,7.69421869999986,0,269,Al2O3_Va_O1269,-2.0,-2.0020409782327584,-2.0020409782327584,1.0010204891163792,-2.8945619964631555,10.660002835666953
34,Al2O3,Al2O3_Va_O1,6.039299999999999,-3.426551008000001,2.224895215865955,2.497321494687122,4.564112179466871,1,269,Al2O3_Va_O1269,-2.0,-2.0020409782327584,-2.0020409782327584,1.0010204891163792,-2.8945619964631555,10.660002835666953
37,Al2O3,Al2O3_Va_O1,6.039299999999999,-3.426551008000001,2.224895215865955,2.497321494687122,1.871706257271368,2,269,Al2O3_Va_O1269,-2.0,-2.0020409782327584,-2.0020409782327584,1.0010204891163792,-2.8945619964631555,10.660002835666953
40,Al2PbO4,Al2PbO4_Va_O1,3.8921,-2.89378359,2.273300437305284,2.391473835296565,6.395135430000105,0,191,Al2PbO4_Va_O1191,-2.0,-2.099755903825975,-2.099755903825975,1.0498779519129875,-1.1369603723458594,7.402214831703272
43,Al2PbO4,Al2PbO4_Va_O1,3.8921,-2.89378359,2.273300437305284,2.391473835296565,4.166058734340394,1,191,Al2PbO4_Va_O1191,-2.0,-2.099755903825975,-2.099755903825975,1.0498779519129875,-1.1369603723458594,7.402214831703272
46,Al2PbO4,Al2PbO4_Va_O1,3.8921,-2.89378359,2.273300437305284,2.391473835296565,1.5597349748155265,2,191,Al2PbO4_Va_O1191,-2.0,-2.099755903825975,-2.099755903825975,1.0498779519129875,-1.1369603723458594,7.402214831703272
49,Al2PbO4,Al2PbO4_Va_O2,3.8921,-2.89378359,2.2577006846753074,2.127479261236284,6.474721879999729,0,239,Al2PbO4_Va_O2239,-2.0,-1.655878386540262,-1.8942513501437075,0.827939193270131,-1.1369603723458594,4.4084183310823875
52,Al2PbO4,Al2PbO4_Va_O2,3.8921,-2.89378359,2.2577006846753074,2.127479261236284,4.512556241284181,1,239,Al2PbO4_Va_O2239,-2.0,-1.655878386540262,-1.8942513501437075,0.827939193270131,-1.1369603723458594,4.4084183310823875
55,Al2PbO4,Al2PbO4_Va_O2,3.8921,-2.89378359,2.2577006846753074,2.127479261236284,2.0772168677228207,2,239,Al2PbO4_Va_O2239,-2.0,-1.655878386540262,-1.8942513501437075,0.827939193270131,-1.1369603723458594,4.4084183310823875
58,Al2PbO4,Al2PbO4_Va_O3,3.8921,-2.89378359,2.271189956610316,2.3477590408505455,6.6248099899997985,0,335,Al2PbO4_Va_O3335,-2.0,-1.9700054099019704,-1.9700054099019708,0.9850027049509852,-1.1369603723458594,6.944808792841771
61,Al2PbO4,Al2PbO4_Va_O3,3.8921,-2.89378359,2.271189956610316,2.3477590408505455,4.48343107357856,1,335,Al2PbO4_Va_O3335,-2.0,-1.9700054099019704,-1.9700054099019708,0.9850027049509852,-1.1369603723458594,6.944808792841771
64,Al2PbO4,Al2PbO4_Va_O3,3.8921,-2.89378359,2.271189956610316,2.3477590408505455,1.6499347158008852,2,335,Al2PbO4_Va_O3335,-2.0,-1.9700054099019704,-1.9700054099019708,0.9850027049509852,-1.1369603723458594,6.944808792841771
67,Al4Bi2O9,Al4Bi2O9_Va_O1,2.6141999999999994,-2.857885394000002,2.3848563900027937,2.7629914986258335,5.484838260000183,0,191,Al4Bi2O9_Va_O1191,-2.0,-2.1664382566866527,-2.1664382566866527,1.0832191283433263,-0.9858147743813158,9.327503664322377
70,Al4Bi2O9,Al4Bi2O9_Va_O1,2.6141999999999994,-2.857885394000002,2.3848563900027937,2.7629914986258335,2.80081104690092,1,191,Al4Bi2O9_Va_O1191,-2.0,-2.1664382566866527,-2.1664382566866527,1.0832191283433263,-0.9858147743813158,9.327503664322377
73,Al4Bi2O9,Al4Bi2O9_Va_O1,2.6141999999999994,-2.857885394000002,2.3848563900027937,2.7629914986258335,0.0603303405355792,2,191,Al4Bi2O9_Va_O1191,-2.0,-2.1664382566866527,-2.1664382566866527,1.0832191283433263,-0.9858147743813158,9.327503664322377
76,Al4Bi2O9,Al4Bi2O9_Va_O2,2.6141999999999994,-2.857885394000002,2.2923045988216,2.525664865147771,7.171021660000301,0,239,Al4Bi2O9_Va_O2239,-2.0,-1.9651881306944037,-1.9804193466532292,0.9825940653472016,-0.9858147743813158,7.847833014005063
79,Al4Bi2O9,Al4Bi2O9_Va_O2,2.6141999999999994,-2.857885394000002,2.2923045988216,2.525664865147771,4.6620565240696425,1,239,Al4Bi2O9_Va_O2239,-2.0,-1.9651881306944037,-1.9804193466532292,0.9825940653472016,-0.9858147743813158,7.847833014005063
82,Al4Bi2O9,Al4Bi2O9_Va_O2,2.6141999999999994,-2.857885394000002,2.2923045988216,2.525664865147771,1.4546189421473312,2,239,Al4Bi2O9_Va_O2239,-2.0,-1.9651881306944037,-1.9804193466532292,0.9825940653472016,-0.9858147743813158,7.847833014005063
85,Al4Bi2O9,Al4Bi2O9_Va_O3,2.6141999999999994,-2.857885394000002,2.3575196255115665,2.820929043431028,5.552068420000419,0,359,Al4Bi2O9_Va_O3359,-2.0,-2.0314314649532057,-2.1312849919052357,1.0157157324766029,-0.9858147743813158,7.077242578662915
88,Al4Bi2O9,Al4Bi2O9_Va_O3,2.6141999999999994,-2.857885394000002,2.3575196255115665,2.820929043431028,3.295307986894666,1,359,Al4Bi2O9_Va_O3359,-2.0,-2.0314314649532057,-2.1312849919052357,1.0157157324766029,-0.9858147743813158,7.077242578662915
91,Al4Bi2O9,Al4Bi2O9_Va_O3,2.6141999999999994,-2.857885394000002,2.3575196255115665,2.820929043431028,0.6232325467040618,2,359,Al4Bi2O9_Va_O3359,-2.0,-2.0314314649532057,-2.1312849919052357,1.0157157324766029,-0.9858147743813158,7.077242578662915
94,Al4Bi2O9,Al4Bi2O9_Va_O4,2.6141999999999994,-2.857885394000002,2.177139080811319,2.1832794803488595,6.636335620000304,0,311,Al4Bi2O9_Va_O4311,-2.0,-1.7172876805731383,-1.7172876805731383,0.8586438402865693,-0.9858147743813158,4.5719073044960625
96,Al4Bi2O9,Al4Bi2O9_Va_O4,2.6141999999999994,-2.857885394000002,2.177139080811319,2.1832794803488595,4.812611687940505,1,311,Al4Bi2O9_Va_O4311,-2.0,-1.7172876805731383,-1.7172876805731383,0.8586438402865693,-0.9858147743813158,4.5719073044960625
98,AlAsO4,AlAsO4_Va_O1,4.3858,-2.444837554166667,2.6675,2.1081297060123902,3.7700192500000274,0,215,AlAsO4_Va_O1215,-2.0,-2.3551366618423257,-2.3551366618423257,1.1775683309211629,-0.6589084382122885,6.485928987602861
100,AlAsO4,AlAsO4_Va_O1,4.3858,-2.444837554166667,2.6675,2.1081297060123902,2.968579729127031,1,215,AlAsO4_Va_O1215,-2.0,-2.3551366618423257,-2.3551366618423257,1.1775683309211629,-0.6589084382122885,6.485928987602861
102,AlSbO4,AlSbO4_Va_O1,1.722599999999999,-2.5433669000000005,2.597103509660969,2.911445950223812,4.638389600000105,0,191,AlSbO4_Va_O1191,-2.0,-2.0739867661429185,-2.0739867661429185,1.0369933830714593,-0.5208045461292565,8.02259687472188
105,AlSbO4,AlSbO4_Va_O1,1.722599999999999,-2.5433669000000005,2.597103509660969,2.911445950223812,2.765454978441495,1,191,AlSbO4_Va_O1191,-2.0,-2.0739867661429185,-2.0739867661429185,1.0369933830714593,-0.5208045461292565,8.02259687472188
108,AlSbO4,AlSbO4_Va_O1,1.722599999999999,-2.5433669000000005,2.597103509660969,2.911445950223812,1.016020351947181,2,191,AlSbO4_Va_O1191,-2.0,-2.0739867661429185,-2.0739867661429185,1.0369933830714593,-0.5208045461292565,8.02259687472188
111,AlSbO4,AlSbO4_Va_O2,1.722599999999999,-2.5433669000000005,2.672896490339031,3.6551000107041887,4.367477630000062,0,159,AlSbO4_Va_O2159,-2.0,-2.443950890671754,-2.443950890671754,1.221975445335877,-0.5208045461292565,9.147648074749899
114,AlSbO4,AlSbO4_Va_O2,1.722599999999999,-2.5433669000000005,2.672896490339031,3.6551000107041887,2.222511203879378,1,159,AlSbO4_Va_O2159,-2.0,-2.443950890671754,-2.443950890671754,1.221975445335877,-0.5208045461292565,9.147648074749899
117,AlSbO4,AlSbO4_Va_O2,1.722599999999999,-2.5433669000000005,2.672896490339031,3.6551000107041887,0.2390589483753902,2,159,AlSbO4_Va_O2159,-2.0,-2.443950890671754,-2.443950890671754,1.221975445335877,-0.5208045461292565,9.147648074749899
120,As2O3,As2O3_Va_O1,3.3312,-1.6290845505,2.745736482564582,3.6517666474416854,3.803732819999718,0,287,As2O3_Va_O1287,-2.0,-2.021079496189694,-2.0764879117237003,1.010539748094847,-1.150088447140494,6.945955293940731
122,As2O3,As2O3_Va_O1,3.3312,-1.6290845505,2.745736482564582,3.6517666474416854,-0.9883017507957212,2,287,As2O3_Va_O1287,-2.0,-2.021079496189694,-2.0764879117237003,1.010539748094847,-1.150088447140494,6.945955293940731
124,As2O3,As2O3_Va_O2,3.3312,-1.6290845505,2.6515650881606163,3.61912449772006,3.756670709999875,0,383,As2O3_Va_O2383,-2.0,-2.0039443571298388,-2.042301455431169,1.0019721785649194,-1.150088447140494,6.8870660171509765
127,As2O3,As2O3_Va_O2,3.3312,-1.6290845505,2.6515650881606163,3.61912449772006,1.31408610750172,1,383,As2O3_Va_O2383,-2.0,-2.0039443571298388,-2.042301455431169,1.0019721785649194,-1.150088447140494,6.8870660171509765
130,As2O3,As2O3_Va_O2,3.3312,-1.6290845505,2.6515650881606163,3.61912449772006,-1.9412796043358855,2,383,As2O3_Va_O2383,-2.0,-2.0039443571298388,-2.042301455431169,1.0019721785649194,-1.150088447140494,6.8870660171509765
133,As2O3,As2O3_Va_O3,3.3312,-1.6290845505,2.6571443525075127,3.7018856453418607,3.7697533399999745,0,479,As2O3_Va_O3479,-2.0,-2.042571910742372,-2.081966493383903,1.021285955371186,-1.150088447140494,7.019819459562711
136,As2O3,As2O3_Va_O3,3.3312,-1.6290845505,2.6571443525075127,3.7018856453418607,1.4107231307089465,1,479,As2O3_Va_O3479,-2.0,-2.042571910742372,-2.081966493383903,1.021285955371186,-1.150088447140494,7.019819459562711
139,As2O3,As2O3_Va_O3,3.3312,-1.6290845505,2.6571443525075127,3.7018856453418607,-1.1966327609093488,2,479,As2O3_Va_O3479,-2.0,-2.042571910742372,-2.081966493383903,1.021285955371186,-1.150088447140494,7.019819459562711
142,As2Pb3O8,As2Pb3O8_Va_O1,3.2885999999999997,-1.7352351134615382,2.6860742046445267,2.7630077039862124,2.7753270799997924,0,251,As2Pb3O8_Va_O1251,-2.0,-1.4681610785137362,-1.8749580104469092,0.7340805392568681,-0.6589084382122885,2.088911653413498
145,As2Pb3O8,As2Pb3O8_Va_O1,3.2885999999999997,-1.7352351134615382,2.6860742046445267,2.7630077039862124,1.2027741832672445,1,251,As2Pb3O8_Va_O1251,-2.0,-1.4681610785137362,-1.8749580104469092,0.7340805392568681,-0.6589084382122885,2.088911653413498
148,As2Pb3O8,As2Pb3O8_Va_O1,3.2885999999999997,-1.7352351134615382,2.6860742046445267,2.7630077039862124,-1.5591657833297032,2,251,As2Pb3O8_Va_O1251,-2.0,-1.4681610785137362,-1.8749580104469092,0.7340805392568681,-0.6589084382122885,2.088911653413498
151,As2Pb3O8,As2Pb3O8_Va_O2,3.2885999999999997,-1.7352351134615382,2.7042365259736325,2.9586236071888488,3.1714331199999695,0,323,As2Pb3O8_Va_O2323,-2.0,-1.3434719965850703,-2.010574150733786,0.6717359982925353,-0.6589084382122885,1.9115030024786184
154,As2Pb3O8,As2Pb3O8_Va_O2,3.2885999999999997,-1.7352351134615382,2.7042365259736325,2.9586236071888488,1.2012910418642972,1,323,As2Pb3O8_Va_O2323,-2.0,-1.3434719965850703,-2.010574150733786,0.6717359982925353,-0.6589084382122885,1.9115030024786184
157,As2Pb3O8,As2Pb3O8_Va_O2,3.2885999999999997,-1.7352351134615382,2.7042365259736325,2.9586236071888488,-1.7971430520194496,2,323,As2Pb3O8_Va_O2323,-2.0,-1.3434719965850703,-2.010574150733786,0.6717359982925353,-0.6589084382122885,1.9115030024786184
160,As2Pb3O8,As2Pb3O8_Va_O3,3.2885999999999997,-1.7352351134615382,2.7163595941283405,2.9774057862274157,3.1593086699998683,0,395,As2Pb3O8_Va_O3395,-2.0,-1.347456176484183,-2.030379424820563,0.6737280882420915,-0.6589084382122885,1.9171717263961445
163,As2Pb3O8,As2Pb3O8_Va_O3,3.2885999999999997,-1.7352351134615382,2.7163595941283405,2.9774057862274157,1.2431563215949155,1,395,As2Pb3O8_Va_O3395,-2.0,-1.347456176484183,-2.030379424820563,0.6737280882420915,-0.6589084382122885,1.9171717263961445
166,As2Pb3O8,As2Pb3O8_Va_O3,3.2885999999999997,-1.7352351134615382,2.7163595941283405,2.9774057862274157,-1.9653822343882072,2,395,As2Pb3O8_Va_O3395,-2.0,-1.347456176484183,-2.030379424820563,0.6737280882420915,-0.6589084382122885,1.9171717263961445
169,As2Pb3O8,As2Pb3O8_Va_O4,3.2885999999999997,-1.7352351134615382,2.768647000263188,2.651400752553627,2.759128609999957,0,467,As2Pb3O8_Va_O4467,-2.0,-1.4970476308971823,-2.0100552921834014,0.7485238154485911,-0.6589084382122885,2.130011677643677
172,As2Pb3O8,As2Pb3O8_Va_O4,3.2885999999999997,-1.7352351134615382,2.768647000263188,2.651400752553627,1.271969204076418,1,467,As2Pb3O8_Va_O4467,-2.0,-1.4970476308971823,-2.0100552921834014,0.7485238154485911,-0.6589084382122885,2.130011677643677
175,As2Pb3O8,As2Pb3O8_Va_O4,3.2885999999999997,-1.7352351134615382,2.768647000263188,2.651400752553627,-1.4715929956733558,2,467,As2Pb3O8_Va_O4467,-2.0,-1.4970476308971823,-2.0100552921834014,0.7485238154485911,-0.6589084382122885,2.130011677643677
178,As2PbO4,As2PbO4_Va_O1,2.6284999999999994,-1.6492657325,2.5488496637752465,3.6606861531341286,3.8530357699999143,0,63,As2PbO4_Va_O163,-2.0,-1.9198628037462704,-1.9198628037462704,0.9599314018731352,-1.1369603723458594,6.598098308583149
181,As2PbO4,As2PbO4_Va_O1,2.6284999999999994,-1.6492657325,2.5488496637752465,3.6606861531341286,1.1037836821811435,1,63,As2PbO4_Va_O163,-2.0,-1.9198628037462704,-1.9198628037462704,0.9599314018731352,-1.1369603723458594,6.598098308583149
184,As2PbO4,As2PbO4_Va_O1,2.6284999999999994,-1.6492657325,2.5488496637752465,3.6606861531341286,-2.218591991685652,2,63,As2PbO4_Va_O163,-2.0,-1.9198628037462704,-1.9198628037462704,0.9599314018731352,-1.1369603723458594,6.598098308583149
187,As2PbO4,As2PbO4_Va_O2,2.6284999999999994,-1.6492657325,2.6503630288382656,3.697726588387933,4.001207819999999,0,79,As2PbO4_Va_O279,-2.0,-1.8876371039858908,-1.8876371039858908,0.9438185519929454,-1.1369603723458594,6.487346470135649
190,As2PbO4,As2PbO4_Va_O2,2.6284999999999994,-1.6492657325,2.6503630288382656,3.697726588387933,1.281354054279944,1,79,As2PbO4_Va_O279,-2.0,-1.8876371039858908,-1.8876371039858908,0.9438185519929454,-1.1369603723458594,6.487346470135649
193,As2PbO4,As2PbO4_Va_O2,2.6284999999999994,-1.6492657325,2.6503630288382656,3.697726588387933,-1.3736386880979254,2,79,As2PbO4_Va_O279,-2.0,-1.8876371039858908,-1.8876371039858908,0.9438185519929454,-1.1369603723458594,6.487346470135649
196,As2PbO4,As2PbO4_Va_O3,2.6284999999999994,-1.6492657325,2.5806582237199267,3.148174099169339,4.1914656999999895,0,95,As2PbO4_Va_O395,-2.0,-1.9882303507673251,-1.9882303507673251,0.9941151753836626,-1.1369603723458594,6.848176603685163
199,As2PbO4,As2PbO4_Va_O3,2.6284999999999994,-1.6492657325,2.5806582237199267,3.148174099169339,1.70225630724411,1,95,As2PbO4_Va_O395,-2.0,-1.9882303507673251,-1.9882303507673251,0.9941151753836626,-1.1369603723458594,6.848176603685163
202,As2PbO4,As2PbO4_Va_O3,2.6284999999999994,-1.6492657325,2.5806582237199267,3.148174099169339,-0.5998686278464951,2,95,As2PbO4_Va_O395,-2.0,-1.9882303507673251,-1.9882303507673251,0.9941151753836626,-1.1369603723458594,6.848176603685163
205,As2PbO4,As2PbO4_Va_O4,2.6284999999999994,-1.6492657325,2.695552037046685,3.189222957911923,4.114966009999998,0,111,As2PbO4_Va_O4111,-2.0,-2.1002245262960813,-2.1279542519827856,1.0501122631480406,-1.1369603723458594,7.233924609347103
208,As2PbO4,As2PbO4_Va_O4,2.6284999999999994,-1.6492657325,2.695552037046685,3.189222957911923,1.7155616738376476,1,111,As2PbO4_Va_O4111,-2.0,-2.1002245262960813,-2.1279542519827856,1.0501122631480406,-1.1369603723458594,7.233924609347103
211,As2PbO4,As2PbO4_Va_O4,2.6284999999999994,-1.6492657325,2.695552037046685,3.189222957911923,-1.0925976520758711,2,111,As2PbO4_Va_O4111,-2.0,-2.1002245262960813,-2.1279542519827856,1.0501122631480406,-1.1369603723458594,7.233924609347103
214,As2PbO6,As2PbO6_Va_O1,2.1464,-1.7356450333333333,2.8350000000000004,3.7085103290461223,4.38521920000006,0,242,As2PbO6_Va_O1242,-2.0,-2.0700766522673857,-2.0700766522673857,1.0350383261336928,-0.6589084382122885,7.677099803977127
217,As2PbO6,As2PbO6_Va_O1,2.1464,-1.7356450333333333,2.8350000000000004,3.7085103290461223,1.4424897564069,1,242,As2PbO6_Va_O1242,-2.0,-2.0700766522673857,-2.0700766522673857,1.0350383261336928,-0.6589084382122885,7.677099803977127
220,As2PbO6,As2PbO6_Va_O1,2.1464,-1.7356450333333333,2.8350000000000004,3.7085103290461223,-1.9155182694596695,2,242,As2PbO6_Va_O1242,-2.0,-2.0700766522673857,-2.0700766522673857,1.0350383261336928,-0.6589084382122885,7.677099803977127
223,B2O3,B2O3_Va_O1,6.3479,-2.79805631,2.522642750980837,3.1894952912738876,6.752125390000012,0,59,B2O3_Va_O159,-2.0,-2.0158032996479607,-2.0412337298262706,1.0079016498239803,-2.1905056483979153,10.958880135843664
225,B2O3,B2O3_Va_O1,6.3479,-2.79805631,2.522642750980837,3.1894952912738876,4.5550444187799,1,59,B2O3_Va_O159,-2.0,-2.0158032996479607,-2.0412337298262706,1.0079016498239803,-2.1905056483979153,10.958880135843664
227,B2O3,B2O3_Va_O2,6.3479,-2.79805631,2.4919401604235785,3.2111856187427152,6.3722730700000145,0,47,B2O3_Va_O247,-2.0,-2.07203931510666,-2.0892051194810364,1.03601965755333,-2.1905056483979153,11.264606271343574
229,B2O3,B2O3_Va_O2,6.3479,-2.79805631,2.4919401604235785,3.2111856187427152,4.485200703805055,1,47,B2O3_Va_O247,-2.0,-2.07203931510666,-2.0892051194810364,1.03601965755333,-2.1905056483979153,11.264606271343574
231,B4PbO7,B4PbO7_Va_O1,4.158,-2.6473397413888877,2.4960870301019216,4.0909509783768545,7.0312588100001765,0,215,B4PbO7_Va_O1215,-2.0,-1.6086933006768684,-1.9576602310431797,0.8043466503384342,-1.1369603723458594,8.745633594573102
234,B4PbO7,B4PbO7_Va_O1,4.158,-2.6473397413888877,2.4960870301019216,4.0909509783768545,3.391608528610109,1,215,B4PbO7_Va_O1215,-2.0,-1.6086933006768684,-1.9576602310431797,0.8043466503384342,-1.1369603723458594,8.745633594573102
237,B4PbO7,B4PbO7_Va_O1,4.158,-2.6473397413888877,2.4960870301019216,4.0909509783768545,-1.2973302691570017,2,215,B4PbO7_Va_O1215,-2.0,-1.6086933006768684,-1.9576602310431797,0.8043466503384342,-1.1369603723458594,8.745633594573102