,formula,full_name,band_gap,formation_energy,nn_ave_eleneg,o2p_center_from_vbm,vacancy_formation_energy,charge,vacancy_index,merge_on,valence,bv_sum_Crystal,bv_sum_nn,BVS_ratio,vr_max,Eb_sum
5075,Rb6Si2O7,Rb6Si2O7_Va_O2,3.3157999999999994,-2.4265757626666664,1.8430506074296524,3.551416424212495,6.5705837800000015,0,227,Rb6Si2O7_Va_O2227,-2.0,-2.003502438582205,-2.1908491278759192,1.0017512192911024,-1.7562254794348755,9.652280287679048
5078,Rb6Si2O7,Rb6Si2O7_Va_O2,3.3157999999999994,-2.4265757626666664,1.8430506074296524,3.551416424212495,3.948430335283594,1,227,Rb6Si2O7_Va_O2227,-2.0,-2.003502438582205,-2.1908491278759192,1.0017512192911024,-1.7562254794348755,9.652280287679048
5081,Rb6Si2O7,Rb6Si2O7_Va_O2,3.3157999999999994,-2.4265757626666664,1.8430506074296524,3.551416424212495,1.647737819779143,2,227,Rb6Si2O7_Va_O2227,-2.0,-2.003502438582205,-2.1908491278759192,1.0017512192911024,-1.7562254794348755,9.652280287679048
5084,Rb6Si2O7,Rb6Si2O7_Va_O3,3.3157999999999994,-2.4265757626666664,1.3205817195285865,1.855323133603911,6.380475519999786,0,359,Rb6Si2O7_Va_O3359,-2.0,-1.212383827308298,-1.918479192382568,0.6061919136541489,-1.7562254794348755,2.920452776116901
5087,Rb6Si2O7,Rb6Si2O7_Va_O3,3.3157999999999994,-2.4265757626666664,1.3205817195285865,1.855323133603911,4.69783945135968,1,359,Rb6Si2O7_Va_O3359,-2.0,-1.212383827308298,-1.918479192382568,0.6061919136541489,-1.7562254794348755,2.920452776116901
5090,Rb6Si2O7,Rb6Si2O7_Va_O3,3.3157999999999994,-2.4265757626666664,1.3205817195285865,1.855323133603911,3.951887657390992,2,359,Rb6Si2O7_Va_O3359,-2.0,-1.212383827308298,-1.918479192382568,0.6061919136541489,-1.7562254794348755,2.920452776116901
5093,Rb6Si2O7,Rb6Si2O7_Va_O4,3.3157999999999994,-2.4265757626666664,1.3013686485182614,1.8455291388056272,6.356189489999801,0,323,Rb6Si2O7_Va_O4323,-2.0,-1.1883094430119183,-1.566714551120163,0.5941547215059593,-1.7562254794348755,2.8624611559154323
5095,Rb6Si2O7,Rb6Si2O7_Va_O4,3.3157999999999994,-2.4265757626666664,1.3013686485182614,1.8455291388056272,4.678891169993983,1,323,Rb6Si2O7_Va_O4323,-2.0,-1.1883094430119183,-1.566714551120163,0.5941547215059593,-1.7562254794348755,2.8624611559154323
5097,RbAlSiO4,RbAlSiO4_Va_O1,4.4681999999999995,-3.1852192524999996,1.9923173255176243,2.52763315215416,6.260382169999852,0,191,RbAlSiO4_Va_O1191,-2.0,-2.1198062608271604,-2.1198062608271604,1.0599031304135802,-1.7562254794348755,7.928061812799129
5100,RbAlSiO4,RbAlSiO4_Va_O1,4.4681999999999995,-3.1852192524999996,1.9923173255176243,2.52763315215416,4.725916616476926,1,191,RbAlSiO4_Va_O1191,-2.0,-2.1198062608271604,-2.1198062608271604,1.0599031304135802,-1.7562254794348755,7.928061812799129
5103,RbAlSiO4,RbAlSiO4_Va_O1,4.4681999999999995,-3.1852192524999996,1.9923173255176243,2.52763315215416,2.824627708993557,2,191,RbAlSiO4_Va_O1191,-2.0,-2.1198062608271604,-2.1198062608271604,1.0599031304135802,-1.7562254794348755,7.928061812799129
5106,RbAlSiO4,RbAlSiO4_Va_O2,4.4681999999999995,-3.1852192524999996,1.8994371639343235,2.532842213623673,6.442584979999888,0,239,RbAlSiO4_Va_O2239,-2.0,-2.0299086048475443,-2.1604352349791056,1.0149543024237722,-1.7562254794348755,7.591845156304284
5109,RbAlSiO4,RbAlSiO4_Va_O2,4.4681999999999995,-3.1852192524999996,1.8994371639343235,2.532842213623673,4.894763679427032,1,239,RbAlSiO4_Va_O2239,-2.0,-2.0299086048475443,-2.1604352349791056,1.0149543024237722,-1.7562254794348755,7.591845156304284
5112,RbAlSiO4,RbAlSiO4_Va_O2,4.4681999999999995,-3.1852192524999996,1.8994371639343235,2.532842213623673,2.64031333681199,2,239,RbAlSiO4_Va_O2239,-2.0,-2.0299086048475443,-2.1604352349791056,1.0149543024237722,-1.7562254794348755,7.591845156304284
5115,RbAlSiO4,RbAlSiO4_Va_O3,4.4681999999999995,-3.1852192524999996,1.8957617866806304,2.547982180784578,6.4506139899998605,0,287,RbAlSiO4_Va_O3287,-2.0,-2.019617346554739,-2.1414207110281795,1.0098086732773697,-1.7562254794348755,7.5533559163277
5117,RbAlSiO4,RbAlSiO4_Va_O3,4.4681999999999995,-3.1852192524999996,1.8957617866806304,2.547982180784578,4.911927633347533,1,287,RbAlSiO4_Va_O3287,-2.0,-2.019617346554739,-2.1414207110281795,1.0098086732773697,-1.7562254794348755,7.5533559163277
5119,RbAlSiO4,RbAlSiO4_Va_O4,4.4681999999999995,-3.1852192524999996,2.1081262881015697,2.4123340604840338,6.194789860000023,0,335,RbAlSiO4_Va_O4335,-2.0,-2.2009486310693545,-2.2009486310693545,1.1004743155346772,-1.7562254794348755,8.231533756818262
5122,RbAlSiO4,RbAlSiO4_Va_O4,4.4681999999999995,-3.1852192524999996,2.1081262881015697,2.4123340604840338,4.709394775563582,1,335,RbAlSiO4_Va_O4335,-2.0,-2.2009486310693545,-2.2009486310693545,1.1004743155346772,-1.7562254794348755,8.231533756818262
5125,RbAlSiO4,RbAlSiO4_Va_O4,4.4681999999999995,-3.1852192524999996,2.1081262881015697,2.4123340604840338,2.906345510131378,2,335,RbAlSiO4_Va_O4335,-2.0,-2.2009486310693545,-2.2009486310693545,1.1004743155346772,-1.7562254794348755,8.231533756818262
5128,RbAsO2,RbAsO2_Va_O1,3.8234,-1.8659498662499991,2.047080228348106,3.189099695784902,4.486262959999872,0,143,RbAsO2_Va_O1143,-2.0,-1.726224846297097,-1.726224846297097,0.8631124231485485,-1.150088447140494,5.932612068092529
5131,RbAsO2,RbAsO2_Va_O1,3.8234,-1.8659498662499991,2.047080228348106,3.189099695784902,1.6067997448929705,1,143,RbAsO2_Va_O1143,-2.0,-1.726224846297097,-1.726224846297097,0.8631124231485485,-1.150088447140494,5.932612068092529
5134,RbAsO2,RbAsO2_Va_O1,3.8234,-1.8659498662499991,2.047080228348106,3.189099695784902,-0.5496837011697369,2,143,RbAsO2_Va_O1143,-2.0,-1.726224846297097,-1.726224846297097,0.8631124231485485,-1.150088447140494,5.932612068092529
5137,RbAsO2,RbAsO2_Va_O2,3.8234,-1.8659498662499991,1.6025355494432765,2.0620363302223153,4.542627859999934,0,191,RbAsO2_Va_O2191,-2.0,-2.0317307053042675,-2.0317307053042675,1.0158653526521335,-1.150088447140494,7.461511300576898
5139,RbAsO2,RbAsO2_Va_O2,3.8234,-1.8659498662499991,1.6025355494432765,2.0620363302223153,2.5378502042940463,1,191,RbAsO2_Va_O2191,-2.0,-2.0317307053042675,-2.0317307053042675,1.0158653526521335,-1.150088447140494,7.461511300576898
5141,RbBO2,RbBO2_Va_O1,4.0156,-2.622254900833333,1.3946434677834016,2.1753724478080345,7.063651139999942,0,107,RbBO2_Va_O1107,-2.0,-1.1996974541113006,-1.7324661053923562,0.5998487270556503,-1.7562254794348755,3.2610673375667645
5144,RbBO2,RbBO2_Va_O1,4.0156,-2.622254900833333,1.3946434677834016,2.1753724478080345,5.348059133995626,1,107,RbBO2_Va_O1107,-2.0,-1.1996974541113006,-1.7324661053923562,0.5998487270556503,-1.7562254794348755,3.2610673375667645
5147,RbBO2,RbBO2_Va_O1,4.0156,-2.622254900833333,1.3946434677834016,2.1753724478080345,5.602765463751249,2,107,RbBO2_Va_O1107,-2.0,-1.1996974541113006,-1.7324661053923562,0.5998487270556503,-1.7562254794348755,3.2610673375667645
5150,RbBO2,RbBO2_Va_O2,4.0156,-2.622254900833333,1.8228153017123696,4.178610917163613,6.264447139999911,0,143,RbBO2_Va_O2143,-2.0,-1.7592122150234628,-2.0203131422393885,0.8796061075117314,-1.7562254794348755,9.563927096121452
5152,RbBO2,RbBO2_Va_O2,4.0156,-2.622254900833333,1.8228153017123696,4.178610917163613,3.812656891523446,1,143,RbBO2_Va_O2143,-2.0,-1.7592122150234628,-2.0203131422393885,0.8796061075117314,-1.7562254794348755,9.563927096121452
5154,RbBa4Sb3O,RbBa4Sb3O_Va_O1,0.8528000000000002,-1.4364363497222223,0.9247452279173402,2.827345583194348,1.9210098891609977,2,143,RbBa4Sb3O_Va_O1143,-2.0,-1.937172358452335,-1.9371723584523348,0.9685861792261676,-1.7562254794348755,6.573895230747204
5155,RbBiO2,RbBiO2_Va_O1,1.9585999999999997,-1.694015584374999,1.730540124449983,2.079345563157339,4.020724320000008,0,191,RbBiO2_Va_O1191,-2.0,-1.896872998820644,-1.813266983656952,0.948436499410322,-0.9858147743813158,5.89691579036002
5158,RbBiO2,RbBiO2_Va_O1,1.9585999999999997,-1.694015584374999,1.730540124449983,2.079345563157339,2.218660677408039,1,191,RbBiO2_Va_O1191,-2.0,-1.896872998820644,-1.813266983656952,0.948436499410322,-0.9858147743813158,5.89691579036002
5161,RbBiO2,RbBiO2_Va_O1,1.9585999999999997,-1.694015584374999,1.730540124449983,2.079345563157339,0.5952252403568687,2,191,RbBiO2_Va_O1191,-2.0,-1.896872998820644,-1.813266983656952,0.948436499410322,-0.9858147743813158,5.89691579036002
5164,RbMgBO3,RbMgBO3_Va_O1,4.4726,-2.766051768611111,1.6446800218680575,2.2991347128620023,6.844739960000092,0,191,RbMgBO3_Va_O1191,-2.0,-0.9974224671293642,-1.8303021642811657,0.4987112335646821,-1.7562254794348755,2.7112350852826497
5167,RbMgBO3,RbMgBO3_Va_O1,4.4726,-2.766051768611111,1.6446800218680575,2.2991347128620023,4.4744703646448505,1,191,RbMgBO3_Va_O1191,-2.0,-0.9974224671293642,-1.8303021642811657,0.4987112335646821,-1.7562254794348755,2.7112350852826497
5170,RbMgBO3,RbMgBO3_Va_O1,4.4726,-2.766051768611111,1.6446800218680575,2.2991347128620023,2.678639903436089,2,191,RbMgBO3_Va_O1191,-2.0,-0.9974224671293642,-1.8303021642811657,0.4987112335646821,-1.7562254794348755,2.7112350852826497
5173,RbNa2BO3,RbNa2BO3_Va_O1,3.17,-2.251398343538588,1.2815366863860267,2.6912552791651994,6.895549830000059,0,111,RbNa2BO3_Va_O1111,-2.0,-0.9300609856973018,-1.7822383865610951,0.4650304928486509,-1.7562254794348755,2.528130314862899
5176,RbNa2BO3,RbNa2BO3_Va_O1,3.17,-2.251398343538588,1.2815366863860267,2.6912552791651994,4.687386903198179,1,111,RbNa2BO3_Va_O1111,-2.0,-0.9300609856973018,-1.7822383865610951,0.4650304928486509,-1.7562254794348755,2.528130314862899
5179,RbNa2BO3,RbNa2BO3_Va_O1,3.17,-2.251398343538588,1.2815366863860267,2.6912552791651994,3.217022066426616,2,111,RbNa2BO3_Va_O1111,-2.0,-0.9300609856973018,-1.7822383865610951,0.4650304928486509,-1.7562254794348755,2.528130314862899
5182,RbNa2BO3,RbNa2BO3_Va_O2,3.17,-2.251398343538588,1.3236821489665178,2.5993584714116977,6.901736440000045,0,95,RbNa2BO3_Va_O295,-2.0,-0.9847848197725964,-1.754299062808872,0.4923924098862982,-1.7562254794348755,2.6768829085087384
5185,RbNa2BO3,RbNa2BO3_Va_O2,3.17,-2.251398343538588,1.3236821489665178,2.5993584714116977,4.873915598519942,1,95,RbNa2BO3_Va_O295,-2.0,-0.9847848197725964,-1.754299062808872,0.4923924098862982,-1.7562254794348755,2.6768829085087384
5188,RbNa2BO3,RbNa2BO3_Va_O2,3.17,-2.251398343538588,1.3236821489665178,2.5993584714116977,3.799921795060889,2,95,RbNa2BO3_Va_O295,-2.0,-0.9847848197725964,-1.754299062808872,0.4923924098862982,-1.7562254794348755,2.6768829085087384
5191,RbSbO2,RbSbO2_Va_O1,2.1201,-1.864373579375,1.8388526718097649,2.848037453621166,4.43810836000001,0,191,RbSbO2_Va_O1191,-2.0,-1.893746010336974,-1.8421150095602403,0.9468730051684868,-1.2369755737418262,9.315766117346243
5194,RbSbO2,RbSbO2_Va_O1,2.1201,-1.864373579375,1.8388526718097649,2.848037453621166,2.287896105284667,1,191,RbSbO2_Va_O1191,-2.0,-1.893746010336974,-1.8421150095602403,0.9468730051684868,-1.2369755737418262,9.315766117346243
5197,RbSbO2,RbSbO2_Va_O1,2.1201,-1.864373579375,1.8388526718097649,2.848037453621166,0.4457588105823111,2,191,RbSbO2_Va_O1191,-2.0,-1.893746010336974,-1.8421150095602403,0.9468730051684868,-1.2369755737418262,9.315766117346243
5200,RbTlO2,RbTlO2_Va_O1,0.9237000000000002,-1.324072010208333,1.5521423638260838,1.6179682841163912,-0.2171781296314696,2,299,RbTlO2_Va_O1299,-2.0,-2.2520343650714865,-2.2520343650714865,1.1260171825357432,-0.5778080287901701,7.693762172883472
5201,RbTlO,RbTlO_Va_O1,1.1948,-1.1706777986111103,1.324218627261024,1.9929550085561316,3.7769892399999865,0,95,RbTlO_Va_O195,-2.0,-1.9588248074544703,-1.9588248074544703,0.9794124037272351,-0.8674893634033586,6.834984669812303
5204,RbTlO,RbTlO_Va_O1,1.1948,-1.1706777986111103,1.324218627261024,1.9929550085561316,2.1638664020715312,1,95,RbTlO_Va_O195,-2.0,-1.9588248074544703,-1.9588248074544703,0.9794124037272351,-0.8674893634033586,6.834984669812303
5207,RbTlO,RbTlO_Va_O1,1.1948,-1.1706777986111103,1.324218627261024,1.9929550085561316,1.0765454219415016,2,95,RbTlO_Va_O195,-2.0,-1.9588248074544703,-1.9588248074544703,0.9794124037272351,-0.8674893634033586,6.834984669812303
5210,Sb2O3,Sb2O3_Va_O1,1.842700000000001,-1.751737502,2.544741242141955,3.479270991356791,4.168888170000011,0,47,Sb2O3_Va_O147,-2.0,-1.9698140396541972,-1.9698140396541972,0.9849070198270986,-1.2369755737418262,13.606065946198852
5213,Sb2O3,Sb2O3_Va_O1,1.842700000000001,-1.751737502,2.544741242141955,3.479270991356791,1.3615332420943422,1,47,Sb2O3_Va_O147,-2.0,-1.9698140396541972,-1.9698140396541972,0.9849070198270986,-1.2369755737418262,13.606065946198852
5216,Sb2O3,Sb2O3_Va_O1,1.842700000000001,-1.751737502,2.544741242141955,3.479270991356791,-2.4440124511067087,2,47,Sb2O3_Va_O147,-2.0,-1.9698140396541972,-1.9698140396541972,0.9849070198270986,-1.2369755737418262,13.606065946198852
5219,Sb2O3,Sb2O3_Va_O2,1.842700000000001,-1.751737502,2.659676891928514,3.6453132200419622,4.23347437999997,0,79,Sb2O3_Va_O279,-2.0,-2.052082021705288,-2.052082021705288,1.026041010852644,-1.2369755737418262,10.630735726416361
5221,Sb2O3,Sb2O3_Va_O2,1.842700000000001,-1.751737502,2.659676891928514,3.6453132200419622,1.342556606925415,1,79,Sb2O3_Va_O279,-2.0,-2.052082021705288,-2.052082021705288,1.026041010852644,-1.2369755737418262,10.630735726416361
5223,Sb2O5,Sb2O5_Va_O1,0.5914000000000001,-1.74803409,2.9272694822707885,2.40437376075443,-0.2854032883053272,2,107,Sb2O5_Va_O1107,-2.0,-2.396506482155358,-2.396506482155358,1.198253241077679,-0.5208045461292565,5.779974536051289
5224,Sb2O5,Sb2O5_Va_O2,0.5914000000000001,-1.74803409,2.930273060929127,2.354301334353211,0.0243211726687433,2,251,Sb2O5_Va_O2251,-2.0,-2.4805950687523763,-2.4805950687523763,1.2402975343761882,-0.5208045461292565,5.9827822033463045
5225,Sb2O5,Sb2O5_Va_O3,0.5914000000000001,-1.74803409,2.8160921979354785,3.3411517317835076,-1.3041811156040253,2,215,Sb2O5_Va_O3215,-2.0,-2.209527971660631,-2.209527971660631,1.1047639858303155,-0.5208045461292565,7.993520260420225
5226,Sb2PbO6,Sb2PbO6_Va_O1,1.8615999999999993,-1.900305225555556,2.791666666666667,3.264053158069724,4.266536340000025,0,71,Sb2PbO6_Va_O171,-2.0,-2.1576672862845636,-2.1576672862845636,1.0788336431422818,-0.5208045461292565,7.065979662607914
5229,Sb2PbO6,Sb2PbO6_Va_O1,1.8615999999999993,-1.900305225555556,2.791666666666667,3.264053158069724,1.9156482987407932,1,71,Sb2PbO6_Va_O171,-2.0,-2.1576672862845636,-2.1576672862845636,1.0788336431422818,-0.5208045461292565,7.065979662607914
5232,Sb2PbO6,Sb2PbO6_Va_O1,1.8615999999999993,-1.900305225555556,2.791666666666667,3.264053158069724,-0.7129099759191244,2,71,Sb2PbO6_Va_O171,-2.0,-2.1576672862845636,-2.1576672862845636,1.0788336431422818,-0.5208045461292565,7.065979662607914
5235,SbAsO3,SbAsO3_Va_O1,3.257,-1.6997547515000004,2.6617779987008463,3.233004375837125,4.052682010000021,0,71,SbAsO3_Va_O171,-2.0,-1.8747504266525103,-2.01234659836217,0.9373752133262552,-1.150088447140494,6.458887689810563
5238,SbAsO3,SbAsO3_Va_O1,3.257,-1.6997547515000004,2.6617779987008463,3.233004375837125,1.4549659834949389,1,71,SbAsO3_Va_O171,-2.0,-1.8747504266525103,-2.01234659836217,0.9373752133262552,-1.150088447140494,6.458887689810563
5241,SbAsO3,SbAsO3_Va_O1,3.257,-1.6997547515000004,2.6617779987008463,3.233004375837125,-1.504653213906757,2,71,SbAsO3_Va_O171,-2.0,-1.8747504266525103,-2.01234659836217,0.9373752133262552,-1.150088447140494,6.458887689810563
5244,SbAsO3,SbAsO3_Va_O2,3.257,-1.6997547515000004,2.5758892938962794,3.120973725974879,4.062129160000049,0,95,SbAsO3_Va_O295,-2.0,-1.9298262520135956,-1.98229705185298,0.9649131260067978,-1.150088447140494,6.648634850485195
5247,SbAsO3,SbAsO3_Va_O2,3.257,-1.6997547515000004,2.5758892938962794,3.120973725974879,1.58685780805539,1,95,SbAsO3_Va_O295,-2.0,-1.9298262520135956,-1.98229705185298,0.9649131260067978,-1.150088447140494,6.648634850485195
5250,SbAsO3,SbAsO3_Va_O2,3.257,-1.6997547515000004,2.5758892938962794,3.120973725974879,-1.5535182982435658,2,95,SbAsO3_Va_O295,-2.0,-1.9298262520135956,-1.98229705185298,0.9649131260067978,-1.150088447140494,6.648634850485195
5253,SbAsO3,SbAsO3_Va_O3,3.257,-1.6997547515000004,2.6776114751845843,3.238784307377601,3.8405594299999937,0,119,SbAsO3_Va_O3119,-2.0,-2.0270148470436853,-2.090770401878288,1.0135074235218426,-1.150088447140494,6.983468869512828
5256,SbAsO3,SbAsO3_Va_O3,3.257,-1.6997547515000004,2.6776114751845843,3.238784307377601,1.3162035616637395,1,119,SbAsO3_Va_O3119,-2.0,-2.0270148470436853,-2.090770401878288,1.0135074235218426,-1.150088447140494,6.983468869512828
5259,SbAsO3,SbAsO3_Va_O3,3.257,-1.6997547515000004,2.6776114751845843,3.238784307377601,-1.7193726986916622,2,119,SbAsO3_Va_O3119,-2.0,-2.0270148470436853,-2.090770401878288,1.0135074235218426,-1.150088447140494,6.983468869512828
5298,SiO2,SiO2_Va_O1,5.785699999999999,-3.267179193333333,2.67,2.858249381991186,5.84099236999999,0,215,SiO2_Va_O1215,-2.0,-2.580680755651299,-2.580680755651299,1.2903403778256497,-2.356834901289411,12.43295416410528
5301,SiO2,SiO2_Va_O1,5.785699999999999,-3.267179193333333,2.67,2.858249381991186,4.9929877338973965,1,215,SiO2_Va_O1215,-2.0,-2.580680755651299,-2.580680755651299,1.2903403778256497,-2.356834901289411,12.43295416410528
5304,SiO2,SiO2_Va_O1,5.785699999999999,-3.267179193333333,2.67,2.858249381991186,3.704156758469766,2,215,SiO2_Va_O1215,-2.0,-2.580680755651299,-2.580680755651299,1.2903403778256497,-2.356834901289411,12.43295416410528
5334,SnB4O7,SnB4O7_Va_O1,3.4541000000000004,-2.6146258118055554,2.4866818536794777,4.7280040897409,7.306844840000062,0,107,SnB4O7_Va_O1107,-2.0,-1.4939343158512086,-1.8223072822547577,0.7469671579256043,-1.454625234810769,8.121748337794754
5337,SnB4O7,SnB4O7_Va_O1,3.4541000000000004,-2.6146258118055554,2.4866818536794777,4.7280040897409,3.4478852254678145,1,107,SnB4O7_Va_O1107,-2.0,-1.4939343158512086,-1.8223072822547577,0.7469671579256043,-1.454625234810769,8.121748337794754
5340,SnB4O7,SnB4O7_Va_O1,3.4541000000000004,-2.6146258118055554,2.4866818536794777,4.7280040897409,-1.2802525626802814,2,107,SnB4O7_Va_O1107,-2.0,-1.4939343158512086,-1.8223072822547577,0.7469671579256043,-1.454625234810769,8.121748337794754
5343,SnB4O7,SnB4O7_Va_O2,3.4541000000000004,-2.6146258118055554,2.3909703478304167,5.7315294788507956,7.681961060000171,0,143,SnB4O7_Va_O2143,-2.0,-1.7694374246161562,-1.8235510704231812,0.8847187123080781,-1.454625234810769,14.429274409584615
5346,SnB4O7,SnB4O7_Va_O2,3.4541000000000004,-2.6146258118055554,2.3909703478304167,5.7315294788507956,2.8590367443788924,1,143,SnB4O7_Va_O2143,-2.0,-1.7694374246161562,-1.8235510704231812,0.8847187123080781,-1.454625234810769,14.429274409584615
5349,SnB4O7,SnB4O7_Va_O2,3.4541000000000004,-2.6146258118055554,2.3909703478304167,5.7315294788507956,-2.906350737052588,2,143,SnB4O7_Va_O2143,-2.0,-1.7694374246161562,-1.8235510704231812,0.8847187123080781,-1.454625234810769,14.429274409584615
5352,SnB4O7,SnB4O7_Va_O3,3.4541000000000004,-2.6146258118055554,2.4263919365401607,4.843565196622258,6.986340179999965,0,179,SnB4O7_Va_O3179,-2.0,-1.6016698609581734,-1.8539880359410048,0.8008349304790867,-1.454625234810769,8.707450784756318
5355,SnB4O7,SnB4O7_Va_O3,3.4541000000000004,-2.6146258118055554,2.4263919365401607,4.843565196622258,3.1917039976913646,1,179,SnB4O7_Va_O3179,-2.0,-1.6016698609581734,-1.8539880359410048,0.8008349304790867,-1.454625234810769,8.707450784756318
5358,SnB4O7,SnB4O7_Va_O3,3.4541000000000004,-2.6146258118055554,2.4263919365401607,4.843565196622258,-1.6684682834869151,2,179,SnB4O7_Va_O3179,-2.0,-1.6016698609581734,-1.8539880359410048,0.8008349304790867,-1.454625234810769,8.707450784756318
5361,SnB4O7,SnB4O7_Va_O4,3.4541000000000004,-2.6146258118055554,2.4685555713397687,4.650600397134114,6.595873240000069,0,215,SnB4O7_Va_O4215,-2.0,-1.7095442470435012,-1.8529182879511297,0.8547721235217506,-1.454625234810769,9.293908038320337
5364,SnB4O7,SnB4O7_Va_O4,3.4541000000000004,-2.6146258118055554,2.4685555713397687,4.650600397134114,3.428893126458652,1,215,SnB4O7_Va_O4215,-2.0,-1.7095442470435012,-1.8529182879511297,0.8547721235217506,-1.454625234810769,9.293908038320337