,formula,full_name,band_gap,formation_energy,nn_ave_eleneg,o2p_center_from_vbm,vacancy_formation_energy,charge,vacancy_index,merge_on,valence,bv_sum_Crystal,bv_sum_nn,BVS_ratio,vr_max,Eb_sum
2128,Cs6Si2O7,Cs6Si2O7_Va_O1,3.4442,-2.38790383483908,1.307232590920452,1.9356571815195789,4.531296677369129,1,275,Cs6Si2O7_Va_O1275,-2.0,-1.1854987299651796,-1.7295464859431016,0.5927493649825898,-1.793018636425102,2.855690565170716
2131,Cs6Si2O7,Cs6Si2O7_Va_O1,3.4442,-2.38790383483908,1.307232590920452,1.9356571815195789,3.400453375152022,2,275,Cs6Si2O7_Va_O1275,-2.0,-1.1854987299651796,-1.7295464859431016,0.5927493649825898,-1.793018636425102,2.855690565170716
2134,Cs6Si2O7,Cs6Si2O7_Va_O2,3.4442,-2.38790383483908,1.9097821348071764,3.5076203644962196,6.753875609999691,0,227,Cs6Si2O7_Va_O2227,-2.0,-1.957418862088374,-1.957418862088374,0.9787094310441872,-1.793018636425102,9.430263289640392
2137,Cs6Si2O7,Cs6Si2O7_Va_O2,3.4442,-2.38790383483908,1.9097821348071764,3.5076203644962196,3.9560642255786913,1,227,Cs6Si2O7_Va_O2227,-2.0,-1.957418862088374,-1.957418862088374,0.9787094310441872,-1.793018636425102,9.430263289640392
2140,Cs6Si2O7,Cs6Si2O7_Va_O2,3.4442,-2.38790383483908,1.9097821348071764,3.5076203644962196,1.3418678511074211,2,227,Cs6Si2O7_Va_O2227,-2.0,-1.957418862088374,-1.957418862088374,0.9787094310441872,-1.793018636425102,9.430263289640392
2143,Cs6Si2O7,Cs6Si2O7_Va_O3,3.4442,-2.38790383483908,1.3401086576177912,1.8835480322680136,6.383200169999677,0,359,Cs6Si2O7_Va_O3359,-2.0,-1.1983100391707406,-1.598865071539893,0.5991550195853703,-1.793018636425102,2.886551108418097
2146,Cs6Si2O7,Cs6Si2O7_Va_O3,3.4442,-2.38790383483908,1.3401086576177912,1.8835480322680136,4.532326706579647,1,359,Cs6Si2O7_Va_O3359,-2.0,-1.1983100391707406,-1.598865071539893,0.5991550195853703,-1.793018636425102,2.886551108418097
2149,Cs6Si2O7,Cs6Si2O7_Va_O3,3.4442,-2.38790383483908,1.3401086576177912,1.8835480322680136,3.46742063153314,2,359,Cs6Si2O7_Va_O3359,-2.0,-1.1983100391707406,-1.598865071539893,0.5991550195853703,-1.793018636425102,2.886551108418097
2152,Cs6Si2O7,Cs6Si2O7_Va_O4,3.4442,-2.38790383483908,1.3223868432825878,1.8399504589532645,6.355920429999864,0,323,Cs6Si2O7_Va_O4323,-2.0,-1.1835221201553607,-1.3569654634261223,0.5917610600776804,-1.793018636425102,2.850929205379897
2155,Cs6Si2O7,Cs6Si2O7_Va_O4,3.4442,-2.38790383483908,1.3223868432825878,1.8399504589532645,4.541007247020234,1,323,Cs6Si2O7_Va_O4323,-2.0,-1.1835221201553607,-1.3569654634261223,0.5917610600776804,-1.793018636425102,2.850929205379897
2158,Cs6Si2O7,Cs6Si2O7_Va_O4,3.4442,-2.38790383483908,1.3223868432825878,1.8399504589532645,3.494978347532891,2,323,Cs6Si2O7_Va_O4323,-2.0,-1.1835221201553607,-1.3569654634261223,0.5917610600776804,-1.793018636425102,2.850929205379897
2161,CsAlSiO4,CsAlSiO4_Va_O1,4.674899999999999,-3.1883621500615753,2.102163835370497,2.39786506938401,6.303446340000287,0,191,CsAlSiO4_Va_O1191,-2.0,-2.1889480851103458,-2.1889480851103458,1.0944740425551729,-1.793018636425102,8.186651791938493
2164,CsAlSiO4,CsAlSiO4_Va_O1,4.674899999999999,-3.1883621500615753,2.102163835370497,2.39786506938401,4.825981372630842,1,191,CsAlSiO4_Va_O1191,-2.0,-2.1889480851103458,-2.1889480851103458,1.0944740425551729,-1.793018636425102,8.186651791938493
2167,CsAlSiO4,CsAlSiO4_Va_O1,4.674899999999999,-3.1883621500615753,2.102163835370497,2.39786506938401,3.2367847970396837,2,191,CsAlSiO4_Va_O1191,-2.0,-2.1889480851103458,-2.1889480851103458,1.0944740425551729,-1.793018636425102,8.186651791938493
2170,CsAlSiO4,CsAlSiO4_Va_O2,4.674899999999999,-3.1883621500615753,1.8842462960671509,2.4864837916854188,6.489763910000315,0,239,CsAlSiO4_Va_O2239,-2.0,-2.04017576968922,-2.04017576968922,1.02008788484461,-1.793018636425102,7.630244286928249
2173,CsAlSiO4,CsAlSiO4_Va_O2,4.674899999999999,-3.1883621500615753,1.8842462960671509,2.4864837916854188,4.926114602482534,1,239,CsAlSiO4_Va_O2239,-2.0,-2.04017576968922,-2.04017576968922,1.02008788484461,-1.793018636425102,7.630244286928249
2176,CsAlSiO4,CsAlSiO4_Va_O2,4.674899999999999,-3.1883621500615753,1.8842462960671509,2.4864837916854188,3.3810646305561884,2,239,CsAlSiO4_Va_O2239,-2.0,-2.04017576968922,-2.04017576968922,1.02008788484461,-1.793018636425102,7.630244286928249
2179,CsAlSiO4,CsAlSiO4_Va_O3,4.674899999999999,-3.1883621500615753,1.886712736944713,2.481598632847279,6.485261600000181,0,287,CsAlSiO4_Va_O3287,-2.0,-2.0463121945582854,-2.0463121945582854,1.0231560972791427,-1.793018636425102,7.653194476561412
2182,CsAlSiO4,CsAlSiO4_Va_O3,4.674899999999999,-3.1883621500615753,1.886712736944713,2.481598632847279,4.950493341089939,1,287,CsAlSiO4_Va_O3287,-2.0,-2.0463121945582854,-2.0463121945582854,1.0231560972791427,-1.793018636425102,7.653194476561412
2185,CsAlSiO4,CsAlSiO4_Va_O3,4.674899999999999,-3.1883621500615753,1.886712736944713,2.481598632847279,3.378057975085451,2,287,CsAlSiO4_Va_O3287,-2.0,-2.0463121945582854,-2.0463121945582854,1.0231560972791427,-1.793018636425102,7.653194476561412
2188,CsAlSiO4,CsAlSiO4_Va_O4,4.674899999999999,-3.1883621500615753,2.0028858383364754,2.455512794576035,6.352438900000275,0,335,CsAlSiO4_Va_O4335,-2.0,-2.1394813251040254,-2.1394813251040254,1.0697406625520127,-1.793018636425102,8.001646426940667
2191,CsAlSiO4,CsAlSiO4_Va_O4,4.674899999999999,-3.1883621500615753,2.0028858383364754,2.455512794576035,4.855147459564364,1,335,CsAlSiO4_Va_O4335,-2.0,-2.1394813251040254,-2.1394813251040254,1.0697406625520127,-1.793018636425102,8.001646426940667
2194,CsAlSiO4,CsAlSiO4_Va_O4,4.674899999999999,-3.1883621500615753,2.0028858383364754,2.455512794576035,3.2986552010806576,2,335,CsAlSiO4_Va_O4335,-2.0,-2.1394813251040254,-2.1394813251040254,1.0697406625520127,-1.793018636425102,8.001646426940667
2197,CsBO2,CsBO2_Va_O1,3.9296,-2.6054637117744255,1.8364608101788675,4.217811019469719,6.189978950000077,0,131,CsBO2_Va_O1131,-2.0,-1.7581127784049255,-1.7671818455328878,0.8790563892024628,-1.793018636425102,9.55795002776284
2200,CsBO2,CsBO2_Va_O1,3.9296,-2.6054637117744255,1.8364608101788675,4.217811019469719,3.7000869535320167,1,131,CsBO2_Va_O1131,-2.0,-1.7581127784049255,-1.7671818455328878,0.8790563892024628,-1.793018636425102,9.55795002776284
2203,CsBO2,CsBO2_Va_O1,3.9296,-2.6054637117744255,1.8364608101788675,4.217811019469719,1.2963684222255822,2,131,CsBO2_Va_O1131,-2.0,-1.7581127784049255,-1.7671818455328878,0.8790563892024628,-1.793018636425102,9.55795002776284
2206,CsBO2,CsBO2_Va_O2,3.9296,-2.6054637117744255,1.3811742318426656,2.164494106944802,6.956328410000092,0,143,CsBO2_Va_O2143,-2.0,-1.1921326438476867,-1.1921326438476867,0.5960663219238433,-1.793018636425102,3.240504356807724
2209,CsBO2,CsBO2_Va_O2,3.9296,-2.6054637117744255,1.3811742318426656,2.164494106944802,5.154786458826624,1,143,CsBO2_Va_O2143,-2.0,-1.1921326438476867,-1.1921326438476867,0.5960663219238433,-1.793018636425102,3.240504356807724
2212,CsBO2,CsBO2_Va_O2,3.9296,-2.6054637117744255,1.3811742318426656,2.164494106944802,5.047833740978778,2,143,CsBO2_Va_O2143,-2.0,-1.1921326438476867,-1.1921326438476867,0.5960663219238433,-1.793018636425102,3.240504356807724
2215,CsBeAsO4,CsBeAsO4_Va_O1,3.9914,-2.2954097136330054,2.0637709368014594,2.5401353722620845,3.479546809999997,0,255,CsBeAsO4_Va_O1255,-2.0,-1.9878062632286972,-1.9878062632286972,0.9939031316143486,-0.6589084382122885,5.868613265476055
2218,CsBeAsO4,CsBeAsO4_Va_O1,3.9914,-2.2954097136330054,2.0637709368014594,2.5401353722620845,1.9012250825300216,1,255,CsBeAsO4_Va_O1255,-2.0,-1.9878062632286972,-1.9878062632286972,0.9939031316143486,-0.6589084382122885,5.868613265476055
2221,CsBeAsO4,CsBeAsO4_Va_O1,3.9914,-2.2954097136330054,2.0637709368014594,2.5401353722620845,1.1602669759389412,2,255,CsBeAsO4_Va_O1255,-2.0,-1.9878062632286972,-1.9878062632286972,0.9939031316143486,-0.6589084382122885,5.868613265476055
2224,CsBeAsO4,CsBeAsO4_Va_O2,3.9914,-2.2954097136330054,2.01960060596143,2.5714787552936484,3.5970881100000813,0,319,CsBeAsO4_Va_O2319,-2.0,-1.9031888912419144,-1.9031888912419144,0.9515944456209572,-0.6589084382122885,5.6187968518157145
2227,CsBeAsO4,CsBeAsO4_Va_O2,3.9914,-2.2954097136330054,2.01960060596143,2.5714787552936484,1.9920365786812555,1,319,CsBeAsO4_Va_O2319,-2.0,-1.9031888912419144,-1.9031888912419144,0.9515944456209572,-0.6589084382122885,5.6187968518157145
2230,CsBeAsO4,CsBeAsO4_Va_O2,3.9914,-2.2954097136330054,2.01960060596143,2.5714787552936484,1.004837344608299,2,319,CsBeAsO4_Va_O2319,-2.0,-1.9031888912419144,-1.9031888912419144,0.9515944456209572,-0.6589084382122885,5.6187968518157145
2233,CsBeAsO4,CsBeAsO4_Va_O3,3.9914,-2.2954097136330054,2.1750823634371104,2.440555456689672,3.5650688800000214,0,383,CsBeAsO4_Va_O3383,-2.0,-1.9554641387662783,-1.9554641387662783,0.9777320693831392,-0.6589084382122885,5.773129402604258
2236,CsBeAsO4,CsBeAsO4_Va_O3,3.9914,-2.2954097136330054,2.1750823634371104,2.440555456689672,2.1226644689822898,1,383,CsBeAsO4_Va_O3383,-2.0,-1.9554641387662783,-1.9554641387662783,0.9777320693831392,-0.6589084382122885,5.773129402604258
2239,CsBeAsO4,CsBeAsO4_Va_O3,3.9914,-2.2954097136330054,2.1750823634371104,2.440555456689672,0.1455938585429033,2,383,CsBeAsO4_Va_O3383,-2.0,-1.9554641387662783,-1.9554641387662783,0.9777320693831392,-0.6589084382122885,5.773129402604258
2242,CsBeAsO4,CsBeAsO4_Va_O4,3.9914,-2.2954097136330054,2.010787454927322,2.578551122059926,3.7277177800000434,0,447,CsBeAsO4_Va_O4447,-2.0,-1.8967179362213715,-1.8967179362213715,0.9483589681106858,-0.6589084382122885,5.599692609527951
2245,CsBeAsO4,CsBeAsO4_Va_O4,3.9914,-2.2954097136330054,2.010787454927322,2.578551122059926,2.08004089389384,1,447,CsBeAsO4_Va_O4447,-2.0,-1.8967179362213715,-1.8967179362213715,0.9483589681106858,-0.6589084382122885,5.599692609527951
2248,CsBeAsO4,CsBeAsO4_Va_O4,3.9914,-2.2954097136330054,2.010787454927322,2.578551122059926,1.0945798230078334,2,447,CsBeAsO4_Va_O4447,-2.0,-1.8967179362213715,-1.8967179362213715,0.9483589681106858,-0.6589084382122885,5.599692609527951
2251,CsLi5(BO3)2,CsLi5(BO3)2_Va_O1,3.5902,-2.499420128066502,1.362320602446628,2.59199434719667,7.122261269999749,0,447,CsLi5(BO3)2_Va_O1447,-2.0,-1.7288285563663748,-1.7288285563663748,0.8644142781831874,-1.793018636425102,8.607648659695478
2254,CsLi5(BO3)2,CsLi5(BO3)2_Va_O1,3.5902,-2.499420128066502,1.362320602446628,2.59199434719667,4.741226843316229,1,447,CsLi5(BO3)2_Va_O1447,-2.0,-1.7288285563663748,-1.7288285563663748,0.8644142781831874,-1.793018636425102,8.607648659695478
2257,CsLi5(BO3)2,CsLi5(BO3)2_Va_O1,3.5902,-2.499420128066502,1.362320602446628,2.59199434719667,2.5855057046584737,2,447,CsLi5(BO3)2_Va_O1447,-2.0,-1.7288285563663748,-1.7288285563663748,0.8644142781831874,-1.793018636425102,8.607648659695478
2260,CsLi5(BO3)2,CsLi5(BO3)2_Va_O2,3.5902,-2.499420128066502,1.2891098434666748,2.6831533723087686,7.174266019999672,0,351,CsLi5(BO3)2_Va_O2351,-2.0,-1.7867724922016068,-1.7983495200598871,0.8933862461008034,-1.793018636425102,10.242567242708457
2263,CsLi5(BO3)2,CsLi5(BO3)2_Va_O2,3.5902,-2.499420128066502,1.2891098434666748,2.6831533723087686,4.500109205608397,1,351,CsLi5(BO3)2_Va_O2351,-2.0,-1.7867724922016068,-1.7983495200598871,0.8933862461008034,-1.793018636425102,10.242567242708457
2266,CsLi5(BO3)2,CsLi5(BO3)2_Va_O2,3.5902,-2.499420128066502,1.2891098434666748,2.6831533723087686,2.1250341582323133,2,351,CsLi5(BO3)2_Va_O2351,-2.0,-1.7867724922016068,-1.7983495200598871,0.8933862461008034,-1.793018636425102,10.242567242708457
2269,CsLi5(BO3)2,CsLi5(BO3)2_Va_O3,3.5902,-2.499420128066502,1.3200248342661616,2.6039376171060997,7.1742387899997855,0,431,CsLi5(BO3)2_Va_O3431,-2.0,-1.728419039607467,-1.7284190396074668,0.8642095198037335,-1.793018636425102,8.605609720456563
2271,CsLi5(BO3)2,CsLi5(BO3)2_Va_O3,3.5902,-2.499420128066502,1.3200248342661616,2.6039376171060997,4.753963009715271,1,431,CsLi5(BO3)2_Va_O3431,-2.0,-1.728419039607467,-1.7284190396074668,0.8642095198037335,-1.793018636425102,8.605609720456563
2273,CsNa2BO3,CsNa2BO3_Va_O1,3.5757999999999996,-2.2313060886001637,1.2874669496287412,2.6312223309103437,6.94818082000007,0,111,CsNa2BO3_Va_O1111,-2.0,-0.922103898181555,-1.574913539756912,0.4610519490907775,-1.793018636425102,2.5065010298203765
2276,CsNa2BO3,CsNa2BO3_Va_O1,3.5757999999999996,-2.2313060886001637,1.2874669496287412,2.6312223309103437,4.576737053330399,1,111,CsNa2BO3_Va_O1111,-2.0,-0.922103898181555,-1.574913539756912,0.4610519490907775,-1.793018636425102,2.5065010298203765
2279,CsNa2BO3,CsNa2BO3_Va_O1,3.5757999999999996,-2.2313060886001637,1.2874669496287412,2.6312223309103437,2.8987212300623137,2,111,CsNa2BO3_Va_O1111,-2.0,-0.922103898181555,-1.574913539756912,0.4610519490907775,-1.793018636425102,2.5065010298203765
2282,CsNa2BO3,CsNa2BO3_Va_O2,3.5757999999999996,-2.2313060886001637,1.345609393300134,2.5216352304073997,6.91627121,0,95,CsNa2BO3_Va_O295,-2.0,-0.9791831427291766,-1.809264176900847,0.4895915713645883,-1.793018636425102,2.661656197824897
2285,CsNa2BO3,CsNa2BO3_Va_O2,3.5757999999999996,-2.2313060886001637,1.345609393300134,2.5216352304073997,4.729204108390736,1,95,CsNa2BO3_Va_O295,-2.0,-0.9791831427291766,-1.809264176900847,0.4895915713645883,-1.793018636425102,2.661656197824897
2288,CsNa2BO3,CsNa2BO3_Va_O2,3.5757999999999996,-2.2313060886001637,1.345609393300134,2.5216352304073997,3.4547208265153055,2,95,CsNa2BO3_Va_O295,-2.0,-0.9791831427291766,-1.809264176900847,0.4895915713645883,-1.793018636425102,2.661656197824897
2291,CsSbO2,CsSbO2_Va_O1,2.3945000000000003,-1.8573301069827588,1.8755274292078843,2.790023883755725,4.366049690000077,0,383,CsSbO2_Va_O1383,-2.0,-1.927073128621901,-1.7794846405791835,0.9635365643109504,-1.2369755737418262,10.410341105361532
2294,CsSbO2,CsSbO2_Va_O1,2.3945000000000003,-1.8573301069827588,1.8755274292078843,2.790023883755725,2.21054496482906,1,383,CsSbO2_Va_O1383,-2.0,-1.927073128621901,-1.7794846405791835,0.9635365643109504,-1.2369755737418262,10.410341105361532
2297,CsSbO2,CsSbO2_Va_O1,2.3945000000000003,-1.8573301069827588,1.8755274292078843,2.790023883755725,0.2901362657081989,2,383,CsSbO2_Va_O1383,-2.0,-1.927073128621901,-1.7794846405791835,0.9635365643109504,-1.2369755737418262,10.410341105361532
2300,CsTlO,CsTlO_Va_O1,1.4732000000000005,-1.1640747204214557,1.3207425225196885,1.9117024702670256,3.5620953999999845,0,95,CsTlO_Va_O195,-2.0,-1.988287819623248,-1.988287819623248,0.994143909811624,-0.8674893634033586,7.897984244479191
2303,CsTlO,CsTlO_Va_O1,1.4732000000000005,-1.1640747204214557,1.3207425225196885,1.9117024702670256,2.0116534403137116,1,95,CsTlO_Va_O195,-2.0,-1.988287819623248,-1.988287819623248,0.994143909811624,-0.8674893634033586,7.897984244479191
2306,CsTlO,CsTlO_Va_O1,1.4732000000000005,-1.1640747204214557,1.3207425225196885,1.9117024702670256,1.0774105680425312,2,95,CsTlO_Va_O195,-2.0,-1.988287819623248,-1.988287819623248,0.994143909811624,-0.8674893634033586,7.897984244479191
2309,Ga2O3,Ga2O3_Va_O1,2.2114,-2.268996668999999,2.3894413671718,2.8345721001720285,4.668474750000096,0,95,Ga2O3_Va_O195,-2.0,-1.9409194790898443,-1.9409194790898443,0.9704597395449224,-1.8812876656363955,7.1933559998124865
2312,Ga2O3,Ga2O3_Va_O1,2.2114,-2.268996668999999,2.3894413671718,2.8345721001720285,2.8563129462292114,1,95,Ga2O3_Va_O195,-2.0,-1.9409194790898443,-1.9409194790898443,0.9704597395449224,-1.8812876656363955,7.1933559998124865
2315,Ga2O3,Ga2O3_Va_O1,2.2114,-2.268996668999999,2.3894413671718,2.8345721001720285,0.3538878002447934,2,95,Ga2O3_Va_O195,-2.0,-1.9409194790898443,-1.9409194790898443,0.9704597395449224,-1.8812876656363955,7.1933559998124865
2318,Ga2O3,Ga2O3_Va_O2,2.2114,-2.268996668999999,2.3313459685068687,2.8870391212766604,5.298623480000069,0,127,Ga2O3_Va_O2127,-2.0,-1.715319641434889,-1.715319641434889,0.8576598207174445,-1.8812876656363955,8.476329538477604
2321,Ga2O3,Ga2O3_Va_O2,2.2114,-2.268996668999999,2.3313459685068687,2.8870391212766604,2.642667951489239,1,127,Ga2O3_Va_O2127,-2.0,-1.715319641434889,-1.715319641434889,0.8576598207174445,-1.8812876656363955,8.476329538477604
2324,Ga2O3,Ga2O3_Va_O2,2.2114,-2.268996668999999,2.3313459685068687,2.8870391212766604,-0.6841803673725178,2,127,Ga2O3_Va_O2127,-2.0,-1.715319641434889,-1.715319641434889,0.8576598207174445,-1.8812876656363955,8.476329538477604
2327,Ga2O3,Ga2O3_Va_O3,2.2114,-2.268996668999999,2.4005128617292173,2.4635876701348796,5.068348539999997,0,159,Ga2O3_Va_O3159,-2.0,-1.7362751630629687,-1.736275163062969,0.8681375815314843,-1.8812876656363955,6.434911646824822
2330,Ga2O3,Ga2O3_Va_O3,2.2114,-2.268996668999999,2.4005128617292173,2.4635876701348796,2.90488314721856,1,159,Ga2O3_Va_O3159,-2.0,-1.7362751630629687,-1.736275163062969,0.8681375815314843,-1.8812876656363955,6.434911646824822
2333,Ga2O3,Ga2O3_Va_O3,2.2114,-2.268996668999999,2.4005128617292173,2.4635876701348796,0.2207117570890133,2,159,Ga2O3_Va_O3159,-2.0,-1.7362751630629687,-1.736275163062969,0.8681375815314843,-1.8812876656363955,6.434911646824822
2336,Ga2PbO4,Ga2PbO4_Va_O1,3.4200000000000004,-2.070018908571428,2.3666933300950235,2.5900641261439423,4.543920279999734,0,191,Ga2PbO4_Va_O1191,-2.0,-1.8788551193570528,-1.8788551193570528,0.9394275596785264,-1.1369603723458594,6.263657101465622
2339,Ga2PbO4,Ga2PbO4_Va_O1,3.4200000000000004,-2.070018908571428,2.3666933300950235,2.5900641261439423,2.67618451787835,1,191,Ga2PbO4_Va_O1191,-2.0,-1.8788551193570528,-1.8788551193570528,0.9394275596785264,-1.1369603723458594,6.263657101465622
2342,Ga2PbO4,Ga2PbO4_Va_O1,3.4200000000000004,-2.070018908571428,2.3666933300950235,2.5900641261439423,-0.0096903865058273,2,191,Ga2PbO4_Va_O1191,-2.0,-1.8788551193570528,-1.8788551193570528,0.9394275596785264,-1.1369603723458594,6.263657101465622
2345,Ga2PbO4,Ga2PbO4_Va_O2,3.4200000000000004,-2.070018908571428,2.350128133368874,2.489193764010925,4.349154319999693,0,239,Ga2PbO4_Va_O2239,-2.0,-1.413005342184221,-1.694026134006779,0.7065026710921105,-1.1369603723458594,3.49121488224893
2348,Ga2PbO4,Ga2PbO4_Va_O2,3.4200000000000004,-2.070018908571428,2.350128133368874,2.489193764010925,2.7984054963289813,1,239,Ga2PbO4_Va_O2239,-2.0,-1.413005342184221,-1.694026134006779,0.7065026710921105,-1.1369603723458594,3.49121488224893
2351,Ga2PbO4,Ga2PbO4_Va_O2,3.4200000000000004,-2.070018908571428,2.350128133368874,2.489193764010925,0.1435790881525649,2,239,Ga2PbO4_Va_O2239,-2.0,-1.413005342184221,-1.694026134006779,0.7065026710921105,-1.1369603723458594,3.49121488224893
2354,Ga2PbO4,Ga2PbO4_Va_O3,3.4200000000000004,-2.070018908571428,2.3824577020851097,2.701914834825696,4.535833280000029,0,335,Ga2PbO4_Va_O3335,-2.0,-1.809725153614988,-1.8097251536149876,0.904862576807494,-1.1369603723458594,6.0331942007431145
2357,Ga2PbO4,Ga2PbO4_Va_O3,3.4200000000000004,-2.070018908571428,2.3824577020851097,2.701914834825696,2.8596353481017935,1,335,Ga2PbO4_Va_O3335,-2.0,-1.809725153614988,-1.8097251536149876,0.904862576807494,-1.1369603723458594,6.0331942007431145
2360,Ga2PbO4,Ga2PbO4_Va_O3,3.4200000000000004,-2.070018908571428,2.3824577020851097,2.701914834825696,0.3714294623306167,2,335,Ga2PbO4_Va_O3335,-2.0,-1.809725153614988,-1.8097251536149876,0.904862576807494,-1.1369603723458594,6.0331942007431145
2363,Ga4GeO8,Ga4GeO8_Va_O1,2.2165000000000004,-2.232362397307691,2.3793666061554513,3.090454798134748,4.556462470000051,0,55,Ga4GeO8_Va_O155,-2.0,-2.003164504094868,-2.003164504094868,1.001582252047434,-1.502819088333178,7.424045953157859
2366,Ga4GeO8,Ga4GeO8_Va_O1,2.2165000000000004,-2.232362397307691,2.3793666061554513,3.090454798134748,2.9135221222982146,1,55,Ga4GeO8_Va_O155,-2.0,-2.003164504094868,-2.003164504094868,1.001582252047434,-1.502819088333178,7.424045953157859
2369,Ga4GeO8,Ga4GeO8_Va_O1,2.2165000000000004,-2.232362397307691,2.3793666061554513,3.090454798134748,0.6069895235660492,2,55,Ga4GeO8_Va_O155,-2.0,-2.003164504094868,-2.003164504094868,1.001582252047434,-1.502819088333178,7.424045953157859
2372,Ga4GeO8,Ga4GeO8_Va_O2,2.2165000000000004,-2.232362397307691,2.590542132745094,2.867799700349588,5.017620630000019,0,71,Ga4GeO8_Va_O271,-2.0,-1.803977477591056,-1.803977477591056,0.901988738795528,-1.502819088333178,9.021159892063713