,formula,full_name,band_gap,formation_energy,nn_ave_eleneg,o2p_center_from_vbm,vacancy_formation_energy,charge,vacancy_index,merge_on,valence,bv_sum_Crystal,bv_sum_nn,BVS_ratio,vr_max,Eb_sum
5599,Sr2Sb2O7,Sr2Sb2O7_Va_O2,1.5038,-2.5705959062121213,2.4560691981034015,2.865612737955333,0.1185994727642563,2,287,Sr2Sb2O7_Va_O2287,-2.0,-1.83872738426337,-2.0245926684623567,0.919363692131685,-0.5208045461292565,4.434704240909917
5602,Sr2Sb2O7,Sr2Sb2O7_Va_O3,1.5038,-2.5705959062121213,2.013854602303889,1.7970500046544078,4.075847940000026,0,351,Sr2Sb2O7_Va_O3351,-2.0,-2.192694466964508,-2.192694466964508,1.096347233482254,-0.5208045461292565,8.375717102292418
5605,Sr2Sb2O7,Sr2Sb2O7_Va_O3,1.5038,-2.5705959062121213,2.013854602303889,1.7970500046544078,2.898909744080276,1,351,Sr2Sb2O7_Va_O3351,-2.0,-2.192694466964508,-2.192694466964508,1.096347233482254,-0.5208045461292565,8.375717102292418
5608,Sr2Sb2O7,Sr2Sb2O7_Va_O3,1.5038,-2.5705959062121213,2.013854602303889,1.7970500046544078,1.6168808596254638,2,351,Sr2Sb2O7_Va_O3351,-2.0,-2.192694466964508,-2.192694466964508,1.096347233482254,-0.5208045461292565,8.375717102292418
5611,Sr2SiO4,Sr2SiO4_Va_O1,4.5842,-3.422863758690476,1.8220442858075871,2.227516599873563,6.618549609999954,0,63,Sr2SiO4_Va_O163,-2.0,-1.2054971040729177,-1.9491690757747209,0.6027485520364588,-2.356834901289411,2.903863681526479
5613,Sr2SiO4,Sr2SiO4_Va_O1,4.5842,-3.422863758690476,1.8220442858075871,2.227516599873563,4.379611252012674,1,63,Sr2SiO4_Va_O163,-2.0,-1.2054971040729177,-1.9491690757747209,0.6027485520364588,-2.356834901289411,2.903863681526479
5615,Sr2SiO4,Sr2SiO4_Va_O2,4.5842,-3.422863758690476,1.8141372600035992,2.1815756368674126,6.662818860000025,0,79,Sr2SiO4_Va_O279,-2.0,-1.9379782259590013,-1.937978225959001,0.9689891129795006,-2.356834901289411,11.422574491273801
5618,Sr2SiO4,Sr2SiO4_Va_O2,4.5842,-3.422863758690476,1.8141372600035992,2.1815756368674126,4.405964106888632,1,79,Sr2SiO4_Va_O279,-2.0,-1.9379782259590013,-1.937978225959001,0.9689891129795006,-2.356834901289411,11.422574491273801
5621,Sr2SiO4,Sr2SiO4_Va_O2,4.5842,-3.422863758690476,1.8141372600035992,2.1815756368674126,1.1856895671429464,2,79,Sr2SiO4_Va_O279,-2.0,-1.9379782259590013,-1.937978225959001,0.9689891129795006,-2.356834901289411,11.422574491273801
5624,Sr2SiO4,Sr2SiO4_Va_O3,4.5842,-3.422863758690476,1.7630523901393695,2.2575793232741708,6.732053009999968,0,95,Sr2SiO4_Va_O395,-2.0,-1.1356993086088043,-1.898340278811003,0.5678496543044022,-2.356834901289411,2.7357311471437233
5627,Sr2SiO4,Sr2SiO4_Va_O3,4.5842,-3.422863758690476,1.7630523901393695,2.2575793232741708,4.3864855376028355,1,95,Sr2SiO4_Va_O395,-2.0,-1.1356993086088043,-1.898340278811003,0.5678496543044022,-2.356834901289411,2.7357311471437233
5630,Sr2SiO4,Sr2SiO4_Va_O3,4.5842,-3.422863758690476,1.7630523901393695,2.2575793232741708,2.480822486712031,2,95,Sr2SiO4_Va_O395,-2.0,-1.1356993086088043,-1.898340278811003,0.5678496543044022,-2.356834901289411,2.7357311471437233
5633,Sr2SiO4,Sr2SiO4_Va_O4,4.5842,-3.422863758690476,1.9822723634755313,2.003378364216619,6.401802409999968,0,111,Sr2SiO4_Va_O4111,-2.0,-2.037923811449112,-2.037923811449112,1.018961905724556,-2.356834901289411,10.23600942051744
5636,Sr2SiO4,Sr2SiO4_Va_O4,4.5842,-3.422863758690476,1.9822723634755313,2.003378364216619,4.286948926266634,1,111,Sr2SiO4_Va_O4111,-2.0,-2.037923811449112,-2.037923811449112,1.018961905724556,-2.356834901289411,10.23600942051744
5639,Sr2SiO4,Sr2SiO4_Va_O4,4.5842,-3.422863758690476,1.9822723634755313,2.003378364216619,2.6917022461087443,2,111,Sr2SiO4_Va_O4111,-2.0,-2.037923811449112,-2.037923811449112,1.018961905724556,-2.356834901289411,10.23600942051744
5642,Sr2SnO4,Sr2SnO4_Va_O1,2.8567,-2.7861135097619045,1.6933973178721695,1.243837549095172,5.170144650000006,0,79,Sr2SnO4_Va_O179,-2.0,-1.570463706356494,-1.570463706356494,0.7852318531782471,-1.538575818365933,5.9799783118334
5645,Sr2SnO4,Sr2SnO4_Va_O1,2.8567,-2.7861135097619045,1.6933973178721695,1.243837549095172,3.562827598372836,1,79,Sr2SnO4_Va_O179,-2.0,-1.570463706356494,-1.570463706356494,0.7852318531782471,-1.538575818365933,5.9799783118334
5648,Sr2SnO4,Sr2SnO4_Va_O1,2.8567,-2.7861135097619045,1.6933973178721695,1.243837549095172,1.9157561705151176,2,79,Sr2SnO4_Va_O179,-2.0,-1.570463706356494,-1.570463706356494,0.7852318531782471,-1.538575818365933,5.9799783118334
5651,Sr2SnO4,Sr2SnO4_Va_O2,2.8567,-2.7861135097619045,1.9692086761336776,2.139614610681748,4.831907209999949,0,95,Sr2SnO4_Va_O295,-2.0,-2.006045486263311,-2.006045486263311,1.0030227431316554,-1.538575818365933,11.78140393008296
5654,Sr2SnO4,Sr2SnO4_Va_O2,2.8567,-2.7861135097619045,1.9692086761336776,2.139614610681748,2.812059506808933,1,95,Sr2SnO4_Va_O295,-2.0,-2.006045486263311,-2.006045486263311,1.0030227431316554,-1.538575818365933,11.78140393008296
5657,Sr2SnO4,Sr2SnO4_Va_O2,2.8567,-2.7861135097619045,1.9692086761336776,2.139614610681748,0.8889401203754499,2,95,Sr2SnO4_Va_O295,-2.0,-2.006045486263311,-2.006045486263311,1.0030227431316554,-1.538575818365933,11.78140393008296
5660,Sr2SnO4,Sr2SnO4_Va_O3,2.8567,-2.7861135097619045,1.983597351297278,1.9553647811038304,5.074544049999995,0,111,Sr2SnO4_Va_O3111,-2.0,-1.8832156561581743,-1.8832156561581748,0.9416078280790872,-1.538575818365933,11.06003053499229
5663,Sr2SnO4,Sr2SnO4_Va_O3,2.8567,-2.7861135097619045,1.983597351297278,1.9553647811038304,3.072968388316651,1,111,Sr2SnO4_Va_O3111,-2.0,-1.8832156561581743,-1.8832156561581748,0.9416078280790872,-1.538575818365933,11.06003053499229
5666,Sr2SnO4,Sr2SnO4_Va_O3,2.8567,-2.7861135097619045,1.983597351297278,1.9553647811038304,1.1602900201373585,2,111,Sr2SnO4_Va_O3111,-2.0,-1.8832156561581743,-1.8832156561581748,0.9416078280790872,-1.538575818365933,11.06003053499229
5669,Sr3(BO3)2,Sr3(BO3)2_Va_O1,4.5526,-3.2455647325757573,1.7979040067844871,2.360448655823145,7.177416160000016,0,65,Sr3(BO3)2_Va_O165,-2.0,-0.9533342542976078,-1.8265970094894208,0.4766671271488039,-2.1905056483979153,2.591392678061875
5671,Sr3(BO3)2,Sr3(BO3)2_Va_O1,4.5526,-3.2455647325757573,1.7979040067844871,2.360448655823145,4.503961406044599,1,65,Sr3(BO3)2_Va_O165,-2.0,-0.9533342542976078,-1.8265970094894208,0.4766671271488039,-2.1905056483979153,2.591392678061875
5673,Sr3LiSbO6,Sr3LiSbO6_Va_O1,3.2918,-2.7778109675757583,1.6314690596991734,1.7724214107810354,5.038175990000022,0,65,Sr3LiSbO6_Va_O165,-2.0,-1.8615141632557488,-1.8615141632557488,0.9307570816278744,-0.5208045461292565,10.135353391979917
5676,Sr3LiSbO6,Sr3LiSbO6_Va_O1,3.2918,-2.7778109675757583,1.6314690596991734,1.7724214107810354,3.2836212688143105,1,65,Sr3LiSbO6_Va_O165,-2.0,-1.8615141632557488,-1.8615141632557488,0.9307570816278744,-0.5208045461292565,10.135353391979917
5679,Sr3LiSbO6,Sr3LiSbO6_Va_O1,3.2918,-2.7778109675757583,1.6314690596991734,1.7724214107810354,1.5778167966231509,2,65,Sr3LiSbO6_Va_O165,-2.0,-1.8615141632557488,-1.8615141632557488,0.9307570816278744,-0.5208045461292565,10.135353391979917
5682,Sr4As2O,Sr4As2O_Va_O1,1.0608,-1.7058687302380946,0.9630837637087896,3.072597349158513,3.493163433021462,1,125,Sr4As2O_Va_O1125,-2.0,-1.7625808429488048,-1.7625808429488048,0.8812904214744024,-3.067823794114626,9.214462069818376
5684,SrAl2(SiO4)2,SrAl2(SiO4)2_Va_O1,4.713,-3.4431226516666653,2.554218117175958,2.1900283165736223,6.228473490000065,0,125,SrAl2(SiO4)2_Va_O1125,-2.0,-2.3718280961747604,-2.3718280961747604,1.1859140480873802,-2.356834901289411,8.8706218597872
5687,SrAl2(SiO4)2,SrAl2(SiO4)2_Va_O1,4.713,-3.4431226516666653,2.554218117175958,2.1900283165736223,5.08469079448636,1,125,SrAl2(SiO4)2_Va_O1125,-2.0,-2.3718280961747604,-2.3718280961747604,1.1859140480873802,-2.356834901289411,8.8706218597872
5690,SrAl2(SiO4)2,SrAl2(SiO4)2_Va_O1,4.713,-3.4431226516666653,2.554218117175958,2.1900283165736223,3.371569996222281,2,125,SrAl2(SiO4)2_Va_O1125,-2.0,-2.3718280961747604,-2.3718280961747604,1.1859140480873802,-2.356834901289411,8.8706218597872
5693,SrAl2(SiO4)2,SrAl2(SiO4)2_Va_O2,4.713,-3.4431226516666653,2.2101591313762072,2.7312975627248033,6.625926309999963,0,233,SrAl2(SiO4)2_Va_O2233,-2.0,-2.1896599177268685,-2.1896599177268685,1.0948299588634345,-2.356834901289411,10.097173411175095
5696,SrAl2(SiO4)2,SrAl2(SiO4)2_Va_O2,4.713,-3.4431226516666653,2.2101591313762072,2.7312975627248033,4.955411222303729,1,233,SrAl2(SiO4)2_Va_O2233,-2.0,-2.1896599177268685,-2.1896599177268685,1.0948299588634345,-2.356834901289411,10.097173411175095
5699,SrAl2(SiO4)2,SrAl2(SiO4)2_Va_O2,4.713,-3.4431226516666653,2.2101591313762072,2.7312975627248033,2.212752503367162,2,233,SrAl2(SiO4)2_Va_O2233,-2.0,-2.1896599177268685,-2.1896599177268685,1.0948299588634345,-2.356834901289411,10.097173411175095
5702,SrAl4O7,SrAl4O7_Va_O1,3.8043,-3.464532970555555,2.0686637973355024,3.3886414129236364,7.318220550000101,0,167,SrAl4O7_Va_O1167,-2.0,-2.1216902074417625,-2.1216902074417625,1.0608451037208813,-2.8945619964631555,8.472812447513189
5705,SrAl4O7,SrAl4O7_Va_O1,3.8043,-3.464532970555555,2.0686637973355024,3.3886414129236364,4.462355171027214,1,167,SrAl4O7_Va_O1167,-2.0,-2.1216902074417625,-2.1216902074417625,1.0608451037208813,-2.8945619964631555,8.472812447513189
5708,SrAl4O7,SrAl4O7_Va_O1,3.8043,-3.464532970555555,2.0686637973355024,3.3886414129236364,1.7682999760985685,2,167,SrAl4O7_Va_O1167,-2.0,-2.1216902074417625,-2.1216902074417625,1.0608451037208813,-2.8945619964631555,8.472812447513189
5711,SrAl4O7,SrAl4O7_Va_O2,3.8043,-3.464532970555555,2.1085699467055883,2.2704895205259694,6.7302501699999855,0,215,SrAl4O7_Va_O2215,-2.0,-2.0672191023825626,-2.0672191023825626,1.0336095511912813,-2.8945619964631555,7.304700288750644
5714,SrAl4O7,SrAl4O7_Va_O2,3.8043,-3.464532970555555,2.1085699467055883,2.2704895205259694,5.332717214659757,1,215,SrAl4O7_Va_O2215,-2.0,-2.0672191023825626,-2.0672191023825626,1.0336095511912813,-2.8945619964631555,7.304700288750644
5717,SrAl4O7,SrAl4O7_Va_O2,3.8043,-3.464532970555555,2.1085699467055883,2.2704895205259694,3.837158784627816,2,215,SrAl4O7_Va_O2215,-2.0,-2.0672191023825626,-2.0672191023825626,1.0336095511912813,-2.8945619964631555,7.304700288750644
5720,SrAl4O7,SrAl4O7_Va_O3,3.8043,-3.464532970555555,1.937806108722431,2.331783423377374,6.961667209999982,0,287,SrAl4O7_Va_O3287,-2.0,-1.6322500515489704,-1.99632634936549,0.8161250257744852,-2.8945619964631555,4.3455129957901
5723,SrAl4O7,SrAl4O7_Va_O3,3.8043,-3.464532970555555,1.937806108722431,2.331783423377374,5.232897097297659,1,287,SrAl4O7_Va_O3287,-2.0,-1.6322500515489704,-1.99632634936549,0.8161250257744852,-2.8945619964631555,4.3455129957901
5726,SrAl4O7,SrAl4O7_Va_O3,3.8043,-3.464532970555555,1.937806108722431,2.331783423377374,3.1054495015053365,2,287,SrAl4O7_Va_O3287,-2.0,-1.6322500515489704,-1.99632634936549,0.8161250257744852,-2.8945619964631555,4.3455129957901
5729,SrAl4O7,SrAl4O7_Va_O4,3.8043,-3.464532970555555,2.0585031471306294,2.344349601178077,6.7579584300000395,0,263,SrAl4O7_Va_O4263,-2.0,-1.8901826043495071,-1.9424136833774193,0.9450913021747536,-2.8945619964631555,6.679126271554792
5731,SrAl4O7,SrAl4O7_Va_O4,3.8043,-3.464532970555555,2.0585031471306294,2.344349601178077,4.889110569977683,1,263,SrAl4O7_Va_O4263,-2.0,-1.8901826043495071,-1.9424136833774193,0.9450913021747536,-2.8945619964631555,6.679126271554792
5733,SrBe3O4,SrBe3O4_Va_O1,4.028600000000001,-3.1129027464583334,1.6533110910502504,2.5581943510658087,8.216058770000027,0,63,SrBe3O4_Va_O163,-2.0,-1.4751628753851136,-1.7779175581858608,0.7375814376925568,-3.067823794114626,6.768777042069516
5736,SrBe3O4,SrBe3O4_Va_O1,4.028600000000001,-3.1129027464583334,1.6533110910502504,2.5581943510658087,5.3322964149456,1,63,SrBe3O4_Va_O163,-2.0,-1.4751628753851136,-1.7779175581858608,0.7375814376925568,-3.067823794114626,6.768777042069516
5739,SrBe3O4,SrBe3O4_Va_O1,4.028600000000001,-3.1129027464583334,1.6533110910502504,2.5581943510658087,3.044927438335551,2,63,SrBe3O4_Va_O163,-2.0,-1.4751628753851136,-1.7779175581858608,0.7375814376925568,-3.067823794114626,6.768777042069516
5742,SrBe3O4,SrBe3O4_Va_O2,4.028600000000001,-3.1129027464583334,1.5282350663416238,1.7171848755800505,7.541207660000007,0,47,SrBe3O4_Va_O247,-2.0,-1.0336669132752967,-1.5674466248165595,0.5168334566376483,-3.067823794114626,3.161983438562383
5745,SrBe3O4,SrBe3O4_Va_O2,4.028600000000001,-3.1129027464583334,1.5282350663416238,1.7171848755800505,4.845848771972592,1,47,SrBe3O4_Va_O247,-2.0,-1.0336669132752967,-1.5674466248165595,0.5168334566376483,-3.067823794114626,3.161983438562383
5748,SrBe3O4,SrBe3O4_Va_O2,4.028600000000001,-3.1129027464583334,1.5282350663416238,1.7171848755800505,2.885134493218991,2,47,SrBe3O4_Va_O247,-2.0,-1.0336669132752967,-1.5674466248165595,0.5168334566376483,-3.067823794114626,3.161983438562383
5754,SrGa2B2O7,SrGa2B2O7_Va_O1,4.0775,-2.769393090833332,2.2230932647757946,4.065944714189673,6.106589030000018,0,55,SrGa2B2O7_Va_O155,-2.0,-1.8828848224188728,-1.8828848224188728,0.9414424112094364,-1.8812876656363955,10.236271109433783
5757,SrGa2B2O7,SrGa2B2O7_Va_O1,4.0775,-2.769393090833332,2.2230932647757946,4.065944714189673,3.6510753505709266,1,55,SrGa2B2O7_Va_O155,-2.0,-1.8828848224188728,-1.8828848224188728,0.9414424112094364,-1.8812876656363955,10.236271109433783
5760,SrGa2B2O7,SrGa2B2O7_Va_O1,4.0775,-2.769393090833332,2.2230932647757946,4.065944714189673,0.1763575667204717,2,55,SrGa2B2O7_Va_O155,-2.0,-1.8828848224188728,-1.8828848224188728,0.9414424112094364,-1.8812876656363955,10.236271109433783
5763,SrGa2B2O7,SrGa2B2O7_Va_O2,4.0775,-2.769393090833332,2.0715789785851046,1.8267356589499184,4.861919080000016,0,91,SrGa2B2O7_Va_O291,-2.0,-1.852972491613534,-1.8529724916135344,0.926486245806767,-1.8812876656363955,7.807278220186044
5766,SrGa2B2O7,SrGa2B2O7_Va_O2,4.0775,-2.769393090833332,2.0715789785851046,1.8267356589499184,3.563640916521716,1,91,SrGa2B2O7_Va_O291,-2.0,-1.852972491613534,-1.8529724916135344,0.926486245806767,-1.8812876656363955,7.807278220186044
5769,SrGa2B2O7,SrGa2B2O7_Va_O2,4.0775,-2.769393090833332,2.0715789785851046,1.8267356589499184,0.5146640028625116,2,91,SrGa2B2O7_Va_O291,-2.0,-1.852972491613534,-1.8529724916135344,0.926486245806767,-1.8812876656363955,7.807278220186044
5772,SrGa2B2O7,SrGa2B2O7_Va_O3,4.0775,-2.769393090833332,2.165847515895333,2.96473968899833,6.215003850000025,0,95,SrGa2B2O7_Va_O395,-2.0,-1.832326918743764,-1.8490199959952272,0.916163459371882,-1.8812876656363955,8.840852248434267
5775,SrGa2B2O7,SrGa2B2O7_Va_O3,4.0775,-2.769393090833332,2.165847515895333,2.96473968899833,4.320860906549962,1,95,SrGa2B2O7_Va_O395,-2.0,-1.832326918743764,-1.8490199959952272,0.916163459371882,-1.8812876656363955,8.840852248434267
5778,SrGa2B2O7,SrGa2B2O7_Va_O3,4.0775,-2.769393090833332,2.165847515895333,2.96473968899833,0.8656775874302414,2,95,SrGa2B2O7_Va_O395,-2.0,-1.832326918743764,-1.8490199959952272,0.916163459371882,-1.8812876656363955,8.840852248434267
5781,SrGa2B2O7,SrGa2B2O7_Va_O4,4.0775,-2.769393090833332,2.4300912585032153,2.793130609574969,5.600078120000044,0,83,SrGa2B2O7_Va_O483,-2.0,-1.78804890327238,-1.8585875662907267,0.8940244516361899,-1.8812876656363955,7.069279747387584
5784,SrGa2B2O7,SrGa2B2O7_Va_O4,4.0775,-2.769393090833332,2.4300912585032153,2.793130609574969,4.151232644404375,1,83,SrGa2B2O7_Va_O483,-2.0,-1.78804890327238,-1.8585875662907267,0.8940244516361899,-1.8812876656363955,7.069279747387584
5787,SrGa2B2O7,SrGa2B2O7_Va_O4,4.0775,-2.769393090833332,2.4300912585032153,2.793130609574969,0.6100644725934494,2,83,SrGa2B2O7_Va_O483,-2.0,-1.78804890327238,-1.8585875662907267,0.8940244516361899,-1.8812876656363955,7.069279747387584
5790,SrGa4O7,SrGa4O7_Va_O1,2.5694999999999997,-2.5024807226388877,2.182301379140124,2.3339691379819514,4.526486879999888,0,143,SrGa4O7_Va_O1143,-2.0,-1.71940641972472,-1.76597169177323,0.85970320986236,-1.8812876656363955,5.746387901188787
5792,SrGa4O7,SrGa4O7_Va_O1,2.5694999999999997,-2.5024807226388877,2.182301379140124,2.3339691379819514,3.1668980075662843,1,143,SrGa4O7_Va_O1143,-2.0,-1.71940641972472,-1.76597169177323,0.85970320986236,-1.8812876656363955,5.746387901188787
5794,SrGa4O7,SrGa4O7_Va_O2,2.5694999999999997,-2.5024807226388877,2.2095961790805183,2.3143721592175077,4.434567630000069,0,191,SrGa4O7_Va_O2191,-2.0,-1.8998886885770423,-1.8998886885770423,0.9499443442885211,-1.8812876656363955,6.349573462330365
5797,SrGa4O7,SrGa4O7_Va_O2,2.5694999999999997,-2.5024807226388877,2.2095961790805183,2.3143721592175077,3.4426690155102726,1,191,SrGa4O7_Va_O2191,-2.0,-1.8998886885770423,-1.8998886885770423,0.9499443442885211,-1.8812876656363955,6.349573462330365
5800,SrGa4O7,SrGa4O7_Va_O2,2.5694999999999997,-2.5024807226388877,2.2095961790805183,2.3143721592175077,1.652459204377871,2,191,SrGa4O7_Va_O2191,-2.0,-1.8998886885770423,-1.8998886885770423,0.9499443442885211,-1.8812876656363955,6.349573462330365
5803,SrGa4O7,SrGa4O7_Va_O3,2.5694999999999997,-2.5024807226388877,2.044322650399085,2.234831930429887,4.8117447000000855,0,287,SrGa4O7_Va_O3287,-2.0,-1.6978361508611617,-1.7725957632502862,0.8489180754305807,-1.8812876656363955,5.674298411117681
5806,SrGa4O7,SrGa4O7_Va_O3,2.5694999999999997,-2.5024807226388877,2.044322650399085,2.234831930429887,3.555932644180799,1,287,SrGa4O7_Va_O3287,-2.0,-1.6978361508611617,-1.7725957632502862,0.8489180754305807,-1.8812876656363955,5.674298411117681
5809,SrGa4O7,SrGa4O7_Va_O3,2.5694999999999997,-2.5024807226388877,2.044322650399085,2.234831930429887,1.481515225706411,2,287,SrGa4O7_Va_O3287,-2.0,-1.6978361508611617,-1.7725957632502862,0.8489180754305807,-1.8812876656363955,5.674298411117681
5812,SrGa4O7,SrGa4O7_Va_O4,2.5694999999999997,-2.5024807226388877,2.1994684574528893,3.2233249975748306,5.139716369999983,0,263,SrGa4O7_Va_O4263,-2.0,-1.8726223066786785,-1.8726223066786785,0.9363111533393392,-1.8812876656363955,6.940235826499335
5815,SrGa4O7,SrGa4O7_Va_O4,2.5694999999999997,-2.5024807226388877,2.1994684574528893,3.2233249975748306,2.782752362083424,1,263,SrGa4O7_Va_O4263,-2.0,-1.8726223066786785,-1.8726223066786785,0.9363111533393392,-1.8812876656363955,6.940235826499335
5818,SrGa4O7,SrGa4O7_Va_O4,2.5694999999999997,-2.5024807226388877,2.1994684574528893,3.2233249975748306,-0.1260982117340052,2,263,SrGa4O7_Va_O4263,-2.0,-1.8726223066786785,-1.8726223066786785,0.9363111533393392,-1.8812876656363955,6.940235826499335
5821,SrGePbO4,SrGePbO4_Va_O1,3.4394000000000005,-2.3839253838095233,2.228592646439861,2.31437235064919,4.25248622000016,0,191,SrGePbO4_Va_O1191,-2.0,-0.9562994357729956,-1.781504920235006,0.4781497178864978,-1.1369603723458594,1.800386259839154
5824,SrGePbO4,SrGePbO4_Va_O1,3.4394000000000005,-2.3839253838095233,2.228592646439861,2.31437235064919,2.3095158626795493,1,191,SrGePbO4_Va_O1191,-2.0,-0.9562994357729956,-1.781504920235006,0.4781497178864978,-1.1369603723458594,1.800386259839154
5827,SrGePbO4,SrGePbO4_Va_O1,3.4394000000000005,-2.3839253838095233,2.228592646439861,2.31437235064919,0.1933370730417172,2,191,SrGePbO4_Va_O1191,-2.0,-0.9562994357729956,-1.781504920235006,0.4781497178864978,-1.1369603723458594,1.800386259839154
5830,SrGePbO4,SrGePbO4_Va_O2,3.4394000000000005,-2.3839253838095233,2.139793199731156,1.8399136821187208,4.152377369999963,0,239,SrGePbO4_Va_O2239,-2.0,-1.5485236340728985,-1.5485236340728985,0.7742618170364493,-1.1369603723458594,5.613812365706589
5833,SrGePbO4,SrGePbO4_Va_O2,3.4394000000000005,-2.3839253838095233,2.139793199731156,1.8399136821187208,2.754983433218575,1,239,SrGePbO4_Va_O2239,-2.0,-1.5485236340728985,-1.5485236340728985,0.7742618170364493,-1.1369603723458594,5.613812365706589
5836,SrGePbO4,SrGePbO4_Va_O2,3.4394000000000005,-2.3839253838095233,2.139793199731156,1.8399136821187208,0.2697980782101401,2,239,SrGePbO4_Va_O2239,-2.0,-1.5485236340728985,-1.5485236340728985,0.7742618170364493,-1.1369603723458594,5.613812365706589
5839,SrGePbO4,SrGePbO4_Va_O3,3.4394000000000005,-2.3839253838095233,2.286921758507515,2.1805350707014504,4.234480220000373,0,287,SrGePbO4_Va_O3287,-2.0,-1.853445095560342,-1.853445095560342,0.9267225477801708,-1.1369603723458594,8.31873897817884