,formula,full_name,band_gap,formation_energy,nn_ave_eleneg,o2p_center_from_vbm,vacancy_formation_energy,charge,vacancy_index,merge_on,valence,bv_sum_Crystal,bv_sum_nn,BVS_ratio,vr_max,Eb_sum
5367,SnB4O7,SnB4O7_Va_O4,3.4541000000000004,-2.6146258118055554,2.4685555713397687,4.650600397134114,-0.9404997804583092,2,215,SnB4O7_Va_O4215,-2.0,-1.7095442470435012,-1.8529182879511297,0.8547721235217506,-1.454625234810769,9.293908038320337
5370,SnO2,SnO2_Va_O1,0.8614000000000002,-2.107481543333334,2.6999999999999997,2.689198165456612,4.78985756999999,0,71,SnO2_Va_O171,-2.0,-2.0734633746477353,-2.073463374647736,1.0367316873238677,-1.538575818365933,7.426317514499989
5373,SnO2,SnO2_Va_O1,0.8614000000000002,-2.107481543333334,2.6999999999999997,2.689198165456612,2.6054480568309515,1,71,SnO2_Va_O171,-2.0,-2.0734633746477353,-2.073463374647736,1.0367316873238677,-1.538575818365933,7.426317514499989
5376,SnO2,SnO2_Va_O1,0.8614000000000002,-2.107481543333334,2.6999999999999997,2.689198165456612,0.4874946412465335,2,71,SnO2_Va_O171,-2.0,-2.0734633746477353,-2.073463374647736,1.0367316873238677,-1.538575818365933,7.426317514499989
5379,Sr(AsO3)2,Sr(AsO3)2_Va_O1,3.4882999999999997,-2.233057519074074,2.605,2.4830881013655195,4.617377530000008,0,71,Sr(AsO3)2_Va_O171,-2.0,-2.116982937112555,-2.116982937112555,1.0584914685562774,-0.6589084382122885,7.868657084998213
5382,Sr(AsO3)2,Sr(AsO3)2_Va_O1,3.4882999999999997,-2.233057519074074,2.605,2.4830881013655195,2.049322322578874,1,71,Sr(AsO3)2_Va_O171,-2.0,-2.116982937112555,-2.116982937112555,1.0584914685562774,-0.6589084382122885,7.868657084998213
5385,Sr(AsO3)2,Sr(AsO3)2_Va_O1,3.4882999999999997,-2.233057519074074,2.605,2.4830881013655195,-0.6603201648136243,2,71,Sr(AsO3)2_Va_O171,-2.0,-2.116982937112555,-2.116982937112555,1.0584914685562774,-0.6589084382122885,7.868657084998213
5388,Sr(BO2)2,Sr(BO2)2_Va_O1,4.9695,-3.1235381182142854,2.0343749131611357,2.1615546231003835,7.1470932200001105,0,167,Sr(BO2)2_Va_O1167,-2.0,-1.1661371503837643,-1.8457067379475296,0.5830685751918822,-2.1905056483979153,3.16984232917016
5391,Sr(BO2)2,Sr(BO2)2_Va_O1,4.9695,-3.1235381182142854,2.0343749131611357,2.1615546231003835,4.957801076133615,1,167,Sr(BO2)2_Va_O1167,-2.0,-1.1661371503837643,-1.8457067379475296,0.5830685751918822,-2.1905056483979153,3.16984232917016
5394,Sr(BO2)2,Sr(BO2)2_Va_O1,4.9695,-3.1235381182142854,2.0343749131611357,2.1615546231003835,2.1268773190224017,2,167,Sr(BO2)2_Va_O1167,-2.0,-1.1661371503837643,-1.8457067379475296,0.5830685751918822,-2.1905056483979153,3.16984232917016
5397,Sr(BO2)2,Sr(BO2)2_Va_O2,4.9695,-3.1235381182142854,2.212165616451734,4.007286451289397,6.446952359999964,0,143,Sr(BO2)2_Va_O2143,-2.0,-1.856730232395455,-2.036728425797284,0.9283651161977275,-2.1905056483979153,10.094082128436073
5400,Sr(BO2)2,Sr(BO2)2_Va_O2,4.9695,-3.1235381182142854,2.212165616451734,4.007286451289397,4.05026518981608,1,143,Sr(BO2)2_Va_O2143,-2.0,-1.856730232395455,-2.036728425797284,0.9283651161977275,-2.1905056483979153,10.094082128436073
5403,Sr(BO2)2,Sr(BO2)2_Va_O2,4.9695,-3.1235381182142854,2.212165616451734,4.007286451289397,0.3575153900089236,2,143,Sr(BO2)2_Va_O2143,-2.0,-1.856730232395455,-2.036728425797284,0.9283651161977275,-2.1905056483979153,10.094082128436073
5406,Sr(BiO2)2,Sr(BiO2)2_Va_O1,2.4357,-2.1114339966666664,2.324548257724588,2.5410450963922,3.693859309999775,0,191,Sr(BiO2)2_Va_O1191,-2.0,-2.1085177458630864,-2.1085177458630864,1.0542588729315432,-0.9858147743813158,7.034144891670772
5409,Sr(BiO2)2,Sr(BiO2)2_Va_O1,2.4357,-2.1114339966666664,2.324548257724588,2.5410450963922,1.43297121371456,1,191,Sr(BiO2)2_Va_O1191,-2.0,-2.1085177458630864,-2.1085177458630864,1.0542588729315432,-0.9858147743813158,7.034144891670772
5412,Sr(BiO2)2,Sr(BiO2)2_Va_O1,2.4357,-2.1114339966666664,2.324548257724588,2.5410450963922,-1.4623077333785242,2,191,Sr(BiO2)2_Va_O1191,-2.0,-2.1085177458630864,-2.1085177458630864,1.0542588729315432,-0.9858147743813158,7.034144891670772
5415,Sr(BiO2)2,Sr(BiO2)2_Va_O2,2.4357,-2.1114339966666664,2.029107554714632,1.6113191240651374,3.728578889999776,0,239,Sr(BiO2)2_Va_O2239,-2.0,-2.0887395006835026,-2.0887395006835026,1.0443697503417513,-0.9858147743813158,7.175859843688218
5418,Sr(BiO2)2,Sr(BiO2)2_Va_O2,2.4357,-2.1114339966666664,2.029107554714632,1.6113191240651374,1.7946459805882236,1,239,Sr(BiO2)2_Va_O2239,-2.0,-2.0887395006835026,-2.0887395006835026,1.0443697503417513,-0.9858147743813158,7.175859843688218
5421,Sr(BiO2)2,Sr(BiO2)2_Va_O2,2.4357,-2.1114339966666664,2.029107554714632,1.6113191240651374,0.3173486918524233,2,239,Sr(BiO2)2_Va_O2239,-2.0,-2.0887395006835026,-2.0887395006835026,1.0443697503417513,-0.9858147743813158,7.175859843688218
5424,Sr(BiO2)2,Sr(BiO2)2_Va_O3,2.4357,-2.1114339966666664,1.9921489585095735,1.479765478436082,4.22955231000004,0,287,Sr(BiO2)2_Va_O3287,-2.0,-1.82276883376511,-1.82276883376511,0.911384416882555,-0.9858147743813158,6.262118217356106
5427,Sr(BiO2)2,Sr(BiO2)2_Va_O3,2.4357,-2.1114339966666664,1.9921489585095735,1.479765478436082,2.481994769453447,1,287,Sr(BiO2)2_Va_O3287,-2.0,-1.82276883376511,-1.82276883376511,0.911384416882555,-0.9858147743813158,6.262118217356106
5430,Sr(BiO2)2,Sr(BiO2)2_Va_O3,2.4357,-2.1114339966666664,1.9921489585095735,1.479765478436082,0.5371041497430014,2,287,Sr(BiO2)2_Va_O3287,-2.0,-1.82276883376511,-1.82276883376511,0.911384416882555,-0.9858147743813158,6.262118217356106
5433,Sr(BiO2)2,Sr(BiO2)2_Va_O4,2.4357,-2.1114339966666664,2.4698862172393645,2.4288303816261245,4.060117590000013,0,335,Sr(BiO2)2_Va_O4335,-2.0,-2.0622949664991475,-2.0622949664991475,1.0311474832495735,-0.9858147743813158,5.083057073900742
5436,Sr(BiO2)2,Sr(BiO2)2_Va_O4,2.4357,-2.1114339966666664,2.4698862172393645,2.4288303816261245,1.6195944724626754,1,335,Sr(BiO2)2_Va_O4335,-2.0,-2.0622949664991475,-2.0622949664991475,1.0311474832495735,-0.9858147743813158,5.083057073900742
5439,Sr(BiO2)2,Sr(BiO2)2_Va_O4,2.4357,-2.1114339966666664,2.4698862172393645,2.4288303816261245,-1.654449219348317,2,335,Sr(BiO2)2_Va_O4335,-2.0,-2.0622949664991475,-2.0622949664991475,1.0311474832495735,-0.9858147743813158,5.083057073900742
5442,Sr(SbO3)2,Sr(SbO3)2_Va_O1,2.9061999999999997,-2.3865939085185186,2.561666666666667,2.035490482256219,4.463854070000034,0,71,Sr(SbO3)2_Va_O171,-2.0,-2.191287210146008,-2.191287210146008,1.095643605073004,-0.5208045461292565,7.194297064030377
5445,Sr(SbO3)2,Sr(SbO3)2_Va_O1,2.9061999999999997,-2.3865939085185186,2.561666666666667,2.035490482256219,2.545143821518872,1,71,Sr(SbO3)2_Va_O171,-2.0,-2.191287210146008,-2.191287210146008,1.095643605073004,-0.5208045461292565,7.194297064030377
5448,Sr(SbO3)2,Sr(SbO3)2_Va_O1,2.9061999999999997,-2.3865939085185186,2.561666666666667,2.035490482256219,0.7147319307183222,2,71,Sr(SbO3)2_Va_O171,-2.0,-2.191287210146008,-2.191287210146008,1.095643605073004,-0.5208045461292565,7.194297064030377
5451,Sr2CeO4,Sr2CeO4_Va_O1,2.8113,-3.4935232297619043,1.7461864139507632,1.5237580760513547,3.645454613363686,1,299,Sr2CeO4_Va_O1299,-2.0,-1.755467396559259,-1.708299581367842,0.8777336982796295,-1.974911567461291,9.157504232414048
5453,Sr2CeO4,Sr2CeO4_Va_O1,2.8113,-3.4935232297619043,1.7461864139507632,1.5237580760513547,2.012499447644865,2,299,Sr2CeO4_Va_O1299,-2.0,-1.755467396559259,-1.708299581367842,0.8777336982796295,-1.974911567461291,9.157504232414048
5455,Sr2CeO4,Sr2CeO4_Va_O2,2.8113,-3.4935232297619043,1.6160149065174287,1.3414551932417476,5.72537125999987,0,419,Sr2CeO4_Va_O2419,-2.0,-1.8384462697627164,-1.8384462697627164,0.9192231348813582,-1.974911567461291,8.799798141811625
5458,Sr2CeO4,Sr2CeO4_Va_O2,2.8113,-3.4935232297619043,1.6160149065174287,1.3414551932417476,3.964269371699314,1,419,Sr2CeO4_Va_O2419,-2.0,-1.8384462697627164,-1.8384462697627164,0.9192231348813582,-1.974911567461291,8.799798141811625
5461,Sr2CeO4,Sr2CeO4_Va_O2,2.8113,-3.4935232297619043,1.6160149065174287,1.3414551932417476,2.3174261414614614,2,419,Sr2CeO4_Va_O2419,-2.0,-1.8384462697627164,-1.8384462697627164,0.9192231348813582,-1.974911567461291,8.799798141811625
5464,Sr2GeO4,Sr2GeO4_Va_O1,3.5318999999999994,-2.9120691372619047,2.0119919774690533,1.7370118308883735,4.227263049999928,0,63,Sr2GeO4_Va_O163,-2.0,-1.8477802021438152,-1.8477802021438152,0.9238901010719076,-1.502819088333178,8.308675686618809
5467,Sr2GeO4,Sr2GeO4_Va_O1,3.5318999999999994,-2.9120691372619047,2.0119919774690533,1.7370118308883735,2.8244520145824445,1,63,Sr2GeO4_Va_O163,-2.0,-1.8477802021438152,-1.8477802021438152,0.9238901010719076,-1.502819088333178,8.308675686618809
5470,Sr2GeO4,Sr2GeO4_Va_O1,3.5318999999999994,-2.9120691372619047,2.0119919774690533,1.7370118308883735,1.747469324067139,2,63,Sr2GeO4_Va_O163,-2.0,-1.8477802021438152,-1.8477802021438152,0.9238901010719076,-1.502819088333178,8.308675686618809
5473,Sr2GeO4,Sr2GeO4_Va_O2,3.5318999999999994,-2.9120691372619047,1.801454504713544,1.8924632325639064,4.824244809999991,0,79,Sr2GeO4_Va_O279,-2.0,-1.6327317181641676,-1.6327317181641676,0.8163658590820838,-1.502819088333178,8.76430043601481
5476,Sr2GeO4,Sr2GeO4_Va_O2,3.5318999999999994,-2.9120691372619047,1.801454504713544,1.8924632325639064,3.189535404149213,1,79,Sr2GeO4_Va_O279,-2.0,-1.6327317181641676,-1.6327317181641676,0.8163658590820838,-1.502819088333178,8.76430043601481
5479,Sr2GeO4,Sr2GeO4_Va_O2,3.5318999999999994,-2.9120691372619047,1.801454504713544,1.8924632325639064,1.7920450674957245,2,79,Sr2GeO4_Va_O279,-2.0,-1.6327317181641676,-1.6327317181641676,0.8163658590820838,-1.502819088333178,8.76430043601481
5482,Sr2GeO4,Sr2GeO4_Va_O3,3.5318999999999994,-2.9120691372619047,1.84635061077502,1.8548873432259887,4.750340049999986,0,95,Sr2GeO4_Va_O395,-2.0,-1.7151562844969566,-1.7151562844969566,0.8575781422484783,-1.502819088333178,9.206745238557783
5485,Sr2GeO4,Sr2GeO4_Va_O3,3.5318999999999994,-2.9120691372619047,1.84635061077502,1.8548873432259887,3.2246144768220306,1,95,Sr2GeO4_Va_O395,-2.0,-1.7151562844969566,-1.7151562844969566,0.8575781422484783,-1.502819088333178,9.206745238557783
5488,Sr2GeO4,Sr2GeO4_Va_O3,3.5318999999999994,-2.9120691372619047,1.84635061077502,1.8548873432259887,0.53923867848175,2,95,Sr2GeO4_Va_O395,-2.0,-1.7151562844969566,-1.7151562844969566,0.8575781422484783,-1.502819088333178,9.206745238557783
5491,Sr2GeO4,Sr2GeO4_Va_O4,3.5318999999999994,-2.9120691372619047,1.849858733985163,1.9675209191440468,4.6458462900000175,0,111,Sr2GeO4_Va_O4111,-2.0,-1.6940832865049131,-1.6940832865049131,0.8470416432524566,-1.502819088333178,7.617566525152721
5493,Sr2GeO4,Sr2GeO4_Va_O4,3.5318999999999994,-2.9120691372619047,1.849858733985163,1.9675209191440468,3.0708767600944915,1,111,Sr2GeO4_Va_O4111,-2.0,-1.6940832865049131,-1.6940832865049131,0.8470416432524566,-1.502819088333178,7.617566525152721
5495,Sr2InSbO6,Sr2InSbO6_Va_O1,1.9202999999999997,-2.583106877333333,2.103119176484185,1.8687805300230036,4.613222149999965,0,75,Sr2InSbO6_Va_O175,-2.0,-1.8806961548460304,-1.8806961548460304,0.9403480774230152,-0.5208045461292565,8.942096194475706
5497,Sr2InSbO6,Sr2InSbO6_Va_O1,1.9202999999999997,-2.583106877333333,2.103119176484185,1.8687805300230036,1.0102080488161342,2,75,Sr2InSbO6_Va_O175,-2.0,-1.8806961548460304,-1.8806961548460304,0.9403480774230152,-0.5208045461292565,8.942096194475706
5499,Sr2InSbO6,Sr2InSbO6_Va_O2,1.9202999999999997,-2.583106877333333,2.103499655842161,1.8901487812913813,4.611175819999923,0,79,Sr2InSbO6_Va_O279,-2.0,-1.8940088661324228,-1.8940088661324224,0.9470044330662114,-0.5208045461292565,9.00539379022261
5501,Sr2InSbO6,Sr2InSbO6_Va_O2,1.9202999999999997,-2.583106877333333,2.103499655842161,1.8901487812913813,1.047461155161384,2,79,Sr2InSbO6_Va_O279,-2.0,-1.8940088661324228,-1.8940088661324224,0.9470044330662114,-0.5208045461292565,9.00539379022261
5503,Sr2InSbO6,Sr2InSbO6_Va_O3,1.9202999999999997,-2.583106877333333,2.111956822324779,1.909329567993505,4.633941049999928,0,63,Sr2InSbO6_Va_O363,-2.0,-1.9186083444684896,-1.9186083444684896,0.9593041722342448,-0.5208045461292565,7.450665219180969
5505,Sr2InSbO6,Sr2InSbO6_Va_O3,1.9202999999999997,-2.583106877333333,2.111956822324779,1.909329567993505,1.032574455183394,2,63,Sr2InSbO6_Va_O363,-2.0,-1.9186083444684896,-1.9186083444684896,0.9593041722342448,-0.5208045461292565,7.450665219180969
5507,Sr2Mg(BO3)2,Sr2Mg(BO3)2_Va_O1,4.664199999999999,-3.1881523910606067,1.969591113489994,2.7036102839646188,7.192498629999941,0,395,Sr2Mg(BO3)2_Va_O1395,-2.0,-1.3051701118445356,-1.7555269254479704,0.6525850559222678,-2.1905056483979153,4.6729486121012265
5510,Sr2Mg(BO3)2,Sr2Mg(BO3)2_Va_O1,4.664199999999999,-3.1881523910606067,1.969591113489994,2.7036102839646188,4.370187054003863,1,395,Sr2Mg(BO3)2_Va_O1395,-2.0,-1.3051701118445356,-1.7555269254479704,0.6525850559222678,-2.1905056483979153,4.6729486121012265
5513,Sr2Mg(BO3)2,Sr2Mg(BO3)2_Va_O1,4.664199999999999,-3.1881523910606067,1.969591113489994,2.7036102839646188,2.075356871772523,2,395,Sr2Mg(BO3)2_Va_O1395,-2.0,-1.3051701118445356,-1.7555269254479704,0.6525850559222678,-2.1905056483979153,4.6729486121012265
5516,Sr2Mg(BO3)2,Sr2Mg(BO3)2_Va_O2,4.664199999999999,-3.1881523910606067,1.8596019315711665,2.847850531163455,7.150755319999812,0,359,Sr2Mg(BO3)2_Va_O2359,-2.0,-1.9065628039416191,-1.9065628039416196,0.9532814019708096,-2.1905056483979153,11.809724208586957
5519,Sr2Mg(BO3)2,Sr2Mg(BO3)2_Va_O2,4.664199999999999,-3.1881523910606067,1.8596019315711665,2.847850531163455,4.3720019899902365,1,359,Sr2Mg(BO3)2_Va_O2359,-2.0,-1.9065628039416191,-1.9065628039416196,0.9532814019708096,-2.1905056483979153,11.809724208586957
5522,Sr2Mg(BO3)2,Sr2Mg(BO3)2_Va_O2,4.664199999999999,-3.1881523910606067,1.8596019315711665,2.847850531163455,1.7947765852152178,2,359,Sr2Mg(BO3)2_Va_O2359,-2.0,-1.9065628039416191,-1.9065628039416196,0.9532814019708096,-2.1905056483979153,11.809724208586957
5525,Sr2MgGe2O7,Sr2MgGe2O7_Va_O1,3.4777,-2.813852504861111,2.106276710195257,2.8964387302764214,4.059469240000121,0,287,Sr2MgGe2O7_Va_O1287,-2.0,-2.209325091575609,-2.2093250915756095,1.1046625457878043,-1.502819088333178,12.1688013672009
5528,Sr2MgGe2O7,Sr2MgGe2O7_Va_O1,3.4777,-2.813852504861111,2.106276710195257,2.8964387302764214,2.360758797264041,1,287,Sr2MgGe2O7_Va_O1287,-2.0,-2.209325091575609,-2.2093250915756095,1.1046625457878043,-1.502819088333178,12.1688013672009
5531,Sr2MgGe2O7,Sr2MgGe2O7_Va_O1,3.4777,-2.813852504861111,2.106276710195257,2.8964387302764214,0.4002640128397186,2,287,Sr2MgGe2O7_Va_O1287,-2.0,-2.209325091575609,-2.2093250915756095,1.1046625457878043,-1.502819088333178,12.1688013672009
5534,Sr2MgGe2O7,Sr2MgGe2O7_Va_O2,3.4777,-2.813852504861111,1.9984905015071912,1.5907947350894416,4.550543559999946,0,275,Sr2MgGe2O7_Va_O2275,-2.0,-1.8439568301706697,-1.8439568301706697,0.9219784150853348,-1.502819088333178,8.274503389404813
5537,Sr2MgGe2O7,Sr2MgGe2O7_Va_O2,3.4777,-2.813852504861111,1.9984905015071912,1.5907947350894416,3.080403630183479,1,275,Sr2MgGe2O7_Va_O2275,-2.0,-1.8439568301706697,-1.8439568301706697,0.9219784150853348,-1.502819088333178,8.274503389404813
5540,Sr2MgGe2O7,Sr2MgGe2O7_Va_O2,3.4777,-2.813852504861111,1.9984905015071912,1.5907947350894416,0.7826925138577567,2,275,Sr2MgGe2O7_Va_O2275,-2.0,-1.8439568301706697,-1.8439568301706697,0.9219784150853348,-1.502819088333178,8.274503389404813
5543,Sr2MgGe2O7,Sr2MgGe2O7_Va_O3,3.4777,-2.813852504861111,2.019881563130175,1.400426284337247,3.986390700000024,0,227,Sr2MgGe2O7_Va_O3227,-2.0,-1.5616366678032618,-1.5616366678032618,0.7808183339016309,-1.502819088333178,7.022010842012206
5546,Sr2MgGe2O7,Sr2MgGe2O7_Va_O3,3.4777,-2.813852504861111,2.019881563130175,1.400426284337247,2.7384787459547084,1,227,Sr2MgGe2O7_Va_O3227,-2.0,-1.5616366678032618,-1.5616366678032618,0.7808183339016309,-1.502819088333178,7.022010842012206
5549,Sr2MgGe2O7,Sr2MgGe2O7_Va_O3,3.4777,-2.813852504861111,2.019881563130175,1.400426284337247,1.2995936316090098,2,227,Sr2MgGe2O7_Va_O3227,-2.0,-1.5616366678032618,-1.5616366678032618,0.7808183339016309,-1.502819088333178,7.022010842012206
5552,Sr2MgSi2O7,Sr2MgSi2O7_Va_O1,4.5134,-3.401855501527778,1.9636617275158448,1.999936882939497,6.543085839999899,0,215,Sr2MgSi2O7_Va_O1215,-2.0,-2.117061239542311,-2.117061239542311,1.0585306197711557,-2.356834901289411,10.614002872134906
5554,Sr2MgSi2O7,Sr2MgSi2O7_Va_O1,4.5134,-3.401855501527778,1.9636617275158448,1.999936882939497,4.752275521619286,1,215,Sr2MgSi2O7_Va_O1215,-2.0,-2.117061239542311,-2.117061239542311,1.0585306197711557,-2.356834901289411,10.614002872134906
5556,Sr2MgSi2O7,Sr2MgSi2O7_Va_O2,4.5134,-3.401855501527778,1.9814207009422955,1.654688585253258,6.3101388100002485,0,287,Sr2MgSi2O7_Va_O2287,-2.0,-1.8205951044819184,-1.8205951044819184,0.9102975522409592,-2.356834901289411,9.144418714639563
5559,Sr2MgSi2O7,Sr2MgSi2O7_Va_O2,4.5134,-3.401855501527778,1.9814207009422955,1.654688585253258,4.559021137870245,1,287,Sr2MgSi2O7_Va_O2287,-2.0,-1.8205951044819184,-1.8205951044819184,0.9102975522409592,-2.356834901289411,9.144418714639563
5562,Sr2MgSi2O7,Sr2MgSi2O7_Va_O2,4.5134,-3.401855501527778,1.9814207009422955,1.654688585253258,2.4701913902413595,2,287,Sr2MgSi2O7_Va_O2287,-2.0,-1.8205951044819184,-1.8205951044819184,0.9102975522409592,-2.356834901289411,9.144418714639563
5565,Sr2MgSi2O7,Sr2MgSi2O7_Va_O3,4.5134,-3.401855501527778,2.0760255569431743,3.625323326053503,6.174566909999962,0,263,Sr2MgSi2O7_Va_O3263,-2.0,-2.6235977063447766,-2.6235977063447766,1.3117988531723883,-2.356834901289411,17.211617470415447
5568,Sr2MgSi2O7,Sr2MgSi2O7_Va_O3,4.5134,-3.401855501527778,2.0760255569431743,3.625323326053503,3.804751891966366,1,263,Sr2MgSi2O7_Va_O3263,-2.0,-2.6235977063447766,-2.6235977063447766,1.3117988531723883,-2.356834901289411,17.211617470415447
5571,Sr2MgSi2O7,Sr2MgSi2O7_Va_O3,4.5134,-3.401855501527778,2.0760255569431743,3.625323326053503,1.373267173203564,2,263,Sr2MgSi2O7_Va_O3263,-2.0,-2.6235977063447766,-2.6235977063447766,1.3117988531723883,-2.356834901289411,17.211617470415447
5574,Sr2PbO4,Sr2PbO4_Va_O1,1.4673000000000005,-2.466891851190476,1.8333932892028373,1.2909229458646654,3.5028222400000093,0,299,Sr2PbO4_Va_O1299,-2.0,-1.976831433218258,-1.976831433218258,0.988415716609129,-0.2712847561180753,8.549397674986375
5577,Sr2PbO4,Sr2PbO4_Va_O1,1.4673000000000005,-2.466891851190476,1.8333932892028373,1.2909229458646654,2.5696332411711564,1,299,Sr2PbO4_Va_O1299,-2.0,-1.976831433218258,-1.976831433218258,0.988415716609129,-0.2712847561180753,8.549397674986375
5580,Sr2PbO4,Sr2PbO4_Va_O1,1.4673000000000005,-2.466891851190476,1.8333932892028373,1.2909229458646654,1.695851339956143,2,299,Sr2PbO4_Va_O1299,-2.0,-1.976831433218258,-1.976831433218258,0.988415716609129,-0.2712847561180753,8.549397674986375
5583,Sr2PbO4,Sr2PbO4_Va_O2,1.4673000000000005,-2.466891851190476,2.130806746421933,1.2647395656126572,0.871799279393813,2,419,Sr2PbO4_Va_O2419,-2.0,-1.606170175056176,-1.6061701750561757,0.8030850875280879,-0.2712847561180753,6.895412606199989
5584,Sr2Sb2O7,Sr2Sb2O7_Va_O1,1.5038,-2.5705959062121213,2.459055399322205,2.6840017410813624,4.252368809999902,0,255,Sr2Sb2O7_Va_O1255,-2.0,-2.2084728224382264,-2.208472822438227,1.1042364112191132,-0.5208045461292565,9.174970919339549
5587,Sr2Sb2O7,Sr2Sb2O7_Va_O1,1.5038,-2.5705959062121213,2.459055399322205,2.6840017410813624,2.2107606239462223,1,255,Sr2Sb2O7_Va_O1255,-2.0,-2.2084728224382264,-2.208472822438227,1.1042364112191132,-0.5208045461292565,9.174970919339549
5590,Sr2Sb2O7,Sr2Sb2O7_Va_O1,1.5038,-2.5705959062121213,2.459055399322205,2.6840017410813624,0.0712016207670784,2,255,Sr2Sb2O7_Va_O1255,-2.0,-2.2084728224382264,-2.208472822438227,1.1042364112191132,-0.5208045461292565,9.174970919339549
5593,Sr2Sb2O7,Sr2Sb2O7_Va_O2,1.5038,-2.5705959062121213,2.4560691981034015,2.865612737955333,4.531309609999775,0,287,Sr2Sb2O7_Va_O2287,-2.0,-1.83872738426337,-2.0245926684623567,0.919363692131685,-0.5208045461292565,4.434704240909917
5596,Sr2Sb2O7,Sr2Sb2O7_Va_O2,1.5038,-2.5705959062121213,2.4560691981034015,2.865612737955333,2.379392851262539,1,287,Sr2Sb2O7_Va_O2287,-2.0,-1.83872738426337,-2.0245926684623567,0.919363692131685,-0.5208045461292565,4.434704240909917